# GO
242 atoms 
318 bonds 
584 angles 
1092 dihedrals 
190 impropers 

354 atom types 
6 bond types 
11 angle types 
21 dihedral types 
7 improper types 

0.0	124.0	 xlo xhi 
0.0	124.0	 ylo yhi 
0.0	3.4827	 zlo zhi 


 Masses 
 
1	12.011
2	1.008
3	12.011
4	15.999
5	1.008
6	15.999
7	15.999
8	12.011
9	15.999
10	15.999
11	12.011
12	12.011
13	15.999
354	40.08
349	22.99

 Pair Coeffs 
 
1	0.07	3.55
2	0.03	2.42
3	0.066	3.5
4	0.17	3.12
5	0.0	0.0
6	0.14	2.9
7	0.17	3.07
8	0.105	3.75
9	0.21	2.96
10	0.17	3.0
11	0.07	3.55
12	0.105	3.75
13	0.21	2.96
354	0.449657	2.412031
349	0.0005	4.07

 Bond Coeffs 
 
1	469.0	1.4
2	469.0	1.4
3	469.0	1.4
4	450.0	1.364
5	367.0	1.08
6	553.0	0.945

 Angle Coeffs 
 
1	70.0	120.0
2	63.0	120.0
3	63.0	120.0
4	70.0	120.0
5	63.0	120.0
6	63.0	120.0
7	35.0	120.0
8	63.0	120.0
9	63.0	120.0
10	35.0	120.0
11	35.0	113.0

 Dihedral Coeffs 
 
1	0.0	7.25	0.0	0.0
2	0.0	7.25	0.0	0.0
3	0.0	7.25	0.0	0.0
4	0.0	7.25	0.0	0.0
5	0.0	7.25	0.0	0.0
6	0.0	7.25	0.0	0.0
7	0.0	7.25	0.0	0.0
8	0.0	7.25	0.0	0.0
9	0.0	7.25	0.0	0.0
10	0.0	7.25	0.0	0.0
11	0.0	7.25	0.0	0.0
12	0.0	7.25	0.0	0.0
13	0.0	7.25	0.0	0.0
14	0.0	7.25	0.0	0.0
15	0.0	7.25	0.0	0.0
16	0.0	7.25	0.0	0.0
17	0.0	7.25	0.0	0.0
18	0.0	7.25	0.0	0.0
19	0.0	7.25	0.0	0.0
20	0.0	1.682	0.0	0.0
21	0.0	1.682	0.0	0.0

 Improper Coeffs 
 
1	5.0	180.0
2	5.0	180.0
3	5.0	180.0
4	5.0	180.0
5	5.0	180.0
6	5.0	180.0
7	5.0	180.0

 Atoms 
 
1	 1	 11	 0.15	 0.0	 0.0	 0.0
 2	 1	 11	 0.15	 1.225252741274224	 -0.7074	 0.0
 3	 1	 1	 0.0	 2.450505482548448	 0.0	 0.0
 4	 1	 1	 -0.115	 3.675758223822672	 -0.7074	 0.0
 5	 1	 1	 0.0	 4.901010965096896	 0.0	 0.0
 6	 1	 1	 -0.115	 6.12626370637112	 -0.7074	 0.0
 7	 1	 1	 0.0	 7.351516447645344	 0.0	 0.0
 8	 1	 11	 0.15	 8.576769188919569	 -0.7074	 0.0
 9	 1	 1	 0.0	 9.802021930193792	 0.0	 0.0
 10	 1	 11	 0.15	 11.027274671468016	 -0.7074	 0.0
 11	 1	 1	 0.0	 12.25252741274224	 0.0	 0.0
 12	 1	 1	 -0.115	 13.477780154016463	 -0.7074	 0.0
 13	 1	 1	 0.0	 14.703032895290686	 0.0	 0.0
 14	 1	 1	 -0.115	 15.928285636564912	 -0.7074	 0.0
 15	 1	 1	 0.0	 17.153538377839137	 0.0	 0.0
 16	 1	 1	 -0.115	 18.378791119113362	 -0.7074	 0.0
 17	 1	 1	 0.0	 19.604043860387584	 0.0	 0.0
 18	 1	 1	 -0.115	 20.82929660166181	 -0.7074	 0.0
 19	 1	 1	 -0.115	 22.05454934293603	 0.0	 0.0
 20	 1	 11	 0.15	 0.0	 1.4148	 0.0
 21	 1	 1	 0.0	 1.225252741274224	 2.1222000000000003	 0.0
 22	 1	 1	 0.0	 2.450505482548448	 1.4148	 0.0
 23	 1	 1	 0.0	 3.675758223822672	 2.1222000000000003	 0.0
 24	 1	 1	 0.0	 4.901010965096896	 1.4148	 0.0
 25	 1	 1	 0.0	 6.12626370637112	 2.1222000000000003	 0.0
 26	 1	 1	 0.0	 7.351516447645344	 1.4148	 0.0
 27	 1	 1	 0.0	 8.576769188919569	 2.1222000000000003	 0.0
 28	 1	 1	 0.0	 9.802021930193792	 1.4148	 0.0
 29	 1	 1	 0.0	 11.027274671468016	 2.1222000000000003	 0.0
 30	 1	 1	 0.0	 12.25252741274224	 1.4148	 0.0
 31	 1	 1	 0.0	 13.477780154016463	 2.1222000000000003	 0.0
 32	 1	 1	 0.0	 14.703032895290686	 1.4148	 0.0
 33	 1	 1	 0.0	 15.928285636564912	 2.1222000000000003	 0.0
 34	 1	 1	 0.0	 17.153538377839137	 1.4148	 0.0
 35	 1	 1	 0.0	 18.378791119113362	 2.1222000000000003	 0.0
 36	 1	 1	 0.0	 19.604043860387584	 1.4148	 0.0
 37	 1	 1	 0.0	 20.82929660166181	 2.1222000000000003	 0.0
 38	 1	 1	 -0.115	 22.05454934293603	 1.4148	 0.0
 39	 1	 1	 -0.115	 0.0	 4.244400000000001	 0.0
 40	 1	 1	 0.0	 1.225252741274224	 3.537000000000001	 0.0
 41	 1	 1	 0.0	 2.450505482548448	 4.244400000000001	 0.0
 42	 1	 1	 0.0	 3.675758223822672	 3.537000000000001	 0.0
 43	 1	 1	 0.0	 4.901010965096896	 4.244400000000001	 0.0
 44	 1	 1	 0.0	 6.12626370637112	 3.537000000000001	 0.0
 45	 1	 1	 0.0	 7.351516447645344	 4.244400000000001	 0.0
 46	 1	 1	 0.0	 8.576769188919569	 3.537000000000001	 0.0
 47	 1	 1	 0.0	 9.802021930193792	 4.244400000000001	 0.0
 48	 1	 1	 0.0	 11.027274671468016	 3.537000000000001	 0.0
 49	 1	 1	 0.0	 12.25252741274224	 4.244400000000001	 0.0
 50	 1	 1	 0.0	 13.477780154016463	 3.537000000000001	 0.0
 51	 1	 1	 0.0	 14.703032895290686	 4.244400000000001	 0.0
 52	 1	 1	 0.0	 15.928285636564912	 3.537000000000001	 0.0
 53	 1	 1	 0.0	 17.153538377839137	 4.244400000000001	 0.0
 54	 1	 1	 0.0	 18.378791119113362	 3.537000000000001	 0.0
 55	 1	 1	 0.0	 19.604043860387584	 4.244400000000001	 0.0
 56	 1	 1	 0.0	 20.82929660166181	 3.537000000000001	 0.0
 57	 1	 1	 -0.115	 22.05454934293603	 4.244400000000001	 0.0
 58	 1	 1	 -0.115	 0.0	 5.6592	 0.0
 59	 1	 1	 0.0	 1.225252741274224	 6.3666	 0.0
 60	 1	 1	 0.0	 2.450505482548448	 5.6592	 0.0
 61	 1	 1	 0.0	 3.675758223822672	 6.3666	 0.0
 62	 1	 1	 0.0	 4.901010965096896	 5.6592	 0.0
 63	 1	 1	 0.0	 6.12626370637112	 6.3666	 0.0
 64	 1	 1	 0.0	 7.351516447645344	 5.6592	 0.0
 65	 1	 1	 0.0	 8.576769188919569	 6.3666	 0.0
 66	 1	 1	 0.0	 9.802021930193792	 5.6592	 0.0
 67	 1	 1	 0.0	 11.027274671468016	 6.3666	 0.0
 68	 1	 1	 0.0	 12.25252741274224	 5.6592	 0.0
 69	 1	 1	 0.0	 13.477780154016463	 6.3666	 0.0
 70	 1	 1	 0.0	 14.703032895290686	 5.6592	 0.0
 71	 1	 1	 0.0	 15.928285636564912	 6.3666	 0.0
 72	 1	 1	 0.0	 17.153538377839137	 5.6592	 0.0
 73	 1	 1	 0.0	 18.378791119113362	 6.3666	 0.0
 74	 1	 1	 0.0	 19.604043860387584	 5.6592	 0.0
 75	 1	 1	 0.0	 20.82929660166181	 6.3666	 0.0
 76	 1	 1	 -0.115	 22.05454934293603	 5.6592	 0.0
 77	 1	 11	 0.15	 0.0	 8.488800000000001	 0.0
 78	 1	 1	 0.0	 1.225252741274224	 7.781400000000001	 0.0
 79	 1	 1	 0.0	 2.450505482548448	 8.488800000000001	 0.0
 80	 1	 1	 0.0	 3.675758223822672	 7.781400000000001	 0.0
 81	 1	 1	 0.0	 4.901010965096896	 8.488800000000001	 0.0
 82	 1	 1	 0.0	 6.12626370637112	 7.781400000000001	 0.0
 83	 1	 1	 0.0	 7.351516447645344	 8.488800000000001	 0.0
 84	 1	 1	 0.0	 8.576769188919569	 7.781400000000001	 0.0
 85	 1	 1	 0.0	 9.802021930193792	 8.488800000000001	 0.0
 86	 1	 1	 0.0	 11.027274671468016	 7.781400000000001	 0.0
 87	 1	 1	 0.0	 12.25252741274224	 8.488800000000001	 0.0
 88	 1	 1	 0.0	 13.477780154016463	 7.781400000000001	 0.0
 89	 1	 1	 0.0	 14.703032895290686	 8.488800000000001	 0.0
 90	 1	 1	 0.0	 15.928285636564912	 7.781400000000001	 0.0
 91	 1	 1	 0.0	 17.153538377839137	 8.488800000000001	 0.0
 92	 1	 1	 0.0	 18.378791119113362	 7.781400000000001	 0.0
 93	 1	 1	 0.0	 19.604043860387584	 8.488800000000001	 0.0
 94	 1	 1	 0.0	 20.82929660166181	 7.781400000000001	 0.0
 95	 1	 1	 -0.115	 22.05454934293603	 8.488800000000001	 0.0
 96	 1	 1	 -0.115	 0.0	 9.9036	 0.0
 97	 1	 1	 0.0	 1.225252741274224	 10.611	 0.0
 98	 1	 1	 0.0	 2.450505482548448	 9.9036	 0.0
 99	 1	 1	 0.0	 3.675758223822672	 10.611	 0.0
 100	 1	 1	 0.0	 4.901010965096896	 9.9036	 0.0
 101	 1	 1	 0.0	 6.12626370637112	 10.611	 0.0
 102	 1	 1	 0.0	 7.351516447645344	 9.9036	 0.0
 103	 1	 1	 0.0	 8.576769188919569	 10.611	 0.0
 104	 1	 1	 0.0	 9.802021930193792	 9.9036	 0.0
 105	 1	 1	 0.0	 11.027274671468016	 10.611	 0.0
 106	 1	 1	 0.0	 12.25252741274224	 9.9036	 0.0
 107	 1	 1	 0.0	 13.477780154016463	 10.611	 0.0
 108	 1	 1	 0.0	 14.703032895290686	 9.9036	 0.0
 109	 1	 1	 0.0	 15.928285636564912	 10.611	 0.0
 110	 1	 1	 0.0	 17.153538377839137	 9.9036	 0.0
 111	 1	 1	 0.0	 18.378791119113362	 10.611	 0.0
 112	 1	 1	 0.0	 19.604043860387584	 9.9036	 0.0
 113	 1	 1	 0.0	 20.82929660166181	 10.611	 0.0
 114	 1	 1	 -0.115	 22.05454934293603	 9.9036	 0.0
 115	 1	 11	 0.15	 0.0	 12.733200000000002	 0.0
 116	 1	 1	 0.0	 1.225252741274224	 12.025800000000002	 0.0
 117	 1	 1	 0.0	 2.450505482548448	 12.733200000000002	 0.0
 118	 1	 1	 0.0	 3.675758223822672	 12.025800000000002	 0.0
 119	 1	 1	 0.0	 4.901010965096896	 12.733200000000002	 0.0
 120	 1	 1	 0.0	 6.12626370637112	 12.025800000000002	 0.0
 121	 1	 1	 0.0	 7.351516447645344	 12.733200000000002	 0.0
 122	 1	 1	 0.0	 8.576769188919569	 12.025800000000002	 0.0
 123	 1	 1	 0.0	 9.802021930193792	 12.733200000000002	 0.0
 124	 1	 1	 0.0	 11.027274671468016	 12.025800000000002	 0.0
 125	 1	 1	 0.0	 12.25252741274224	 12.733200000000002	 0.0
 126	 1	 1	 0.0	 13.477780154016463	 12.025800000000002	 0.0
 127	 1	 1	 0.0	 14.703032895290686	 12.733200000000002	 0.0
 128	 1	 1	 0.0	 15.928285636564912	 12.025800000000002	 0.0
 129	 1	 1	 0.0	 17.153538377839137	 12.733200000000002	 0.0
 130	 1	 1	 0.0	 18.378791119113362	 12.025800000000002	 0.0
 131	 1	 1	 0.0	 19.604043860387584	 12.733200000000002	 0.0
 132	 1	 1	 0.0	 20.82929660166181	 12.025800000000002	 0.0
 133	 1	 11	 0.15	 22.05454934293603	 12.733200000000002	 0.0
 134	 1	 1	 -0.115	 0.0	 14.148	 0.0
 135	 1	 1	 0.0	 1.225252741274224	 14.8554	 0.0
 136	 1	 1	 0.0	 2.450505482548448	 14.148	 0.0
 137	 1	 1	 0.0	 3.675758223822672	 14.8554	 0.0
 138	 1	 1	 0.0	 4.901010965096896	 14.148	 0.0
 139	 1	 1	 0.0	 6.12626370637112	 14.8554	 0.0
 140	 1	 1	 0.0	 7.351516447645344	 14.148	 0.0
 141	 1	 1	 0.0	 8.576769188919569	 14.8554	 0.0
 142	 1	 1	 0.0	 9.802021930193792	 14.148	 0.0
 143	 1	 1	 0.0	 11.027274671468016	 14.8554	 0.0
 144	 1	 1	 0.0	 12.25252741274224	 14.148	 0.0
 145	 1	 1	 0.0	 13.477780154016463	 14.8554	 0.0
 146	 1	 1	 0.0	 14.703032895290686	 14.148	 0.0
 147	 1	 1	 0.0	 15.928285636564912	 14.8554	 0.0
 148	 1	 1	 0.0	 17.153538377839137	 14.148	 0.0
 149	 1	 1	 0.0	 18.378791119113362	 14.8554	 0.0
 150	 1	 1	 0.0	 19.604043860387584	 14.148	 0.0
 151	 1	 1	 0.0	 20.82929660166181	 14.8554	 0.0
 152	 1	 1	 -0.115	 22.05454934293603	 14.148	 0.0
 153	 1	 1	 -0.115	 0.0	 16.977600000000002	 0.0
 154	 1	 1	 0.0	 1.225252741274224	 16.270200000000003	 0.0
 155	 1	 1	 0.0	 2.450505482548448	 16.977600000000002	 0.0
 156	 1	 1	 0.0	 3.675758223822672	 16.270200000000003	 0.0
 157	 1	 1	 0.0	 4.901010965096896	 16.977600000000002	 0.0
 158	 1	 1	 0.0	 6.12626370637112	 16.270200000000003	 0.0
 159	 1	 1	 0.0	 7.351516447645344	 16.977600000000002	 0.0
 160	 1	 1	 0.0	 8.576769188919569	 16.270200000000003	 0.0
 161	 1	 1	 0.0	 9.802021930193792	 16.977600000000002	 0.0
 162	 1	 1	 0.0	 11.027274671468016	 16.270200000000003	 0.0
 163	 1	 1	 0.0	 12.25252741274224	 16.977600000000002	 0.0
 164	 1	 1	 0.0	 13.477780154016463	 16.270200000000003	 0.0
 165	 1	 1	 0.0	 14.703032895290686	 16.977600000000002	 0.0
 166	 1	 1	 0.0	 15.928285636564912	 16.270200000000003	 0.0
 167	 1	 1	 0.0	 17.153538377839137	 16.977600000000002	 0.0
 168	 1	 1	 0.0	 18.378791119113362	 16.270200000000003	 0.0
 169	 1	 1	 0.0	 19.604043860387584	 16.977600000000002	 0.0
 170	 1	 1	 0.0	 20.82929660166181	 16.270200000000003	 0.0
 171	 1	 1	 -0.115	 22.05454934293603	 16.977600000000002	 0.0
 172	 1	 1	 -0.115	 0.0	 18.392400000000002	 0.0
 173	 1	 1	 -0.115	 1.225252741274224	 19.099800000000002	 0.0
 174	 1	 1	 0.0	 2.450505482548448	 18.392400000000002	 0.0
 175	 1	 11	 0.15	 3.675758223822672	 19.099800000000002	 0.0
 176	 1	 1	 0.0	 4.901010965096896	 18.392400000000002	 0.0
 177	 1	 1	 -0.115	 6.12626370637112	 19.099800000000002	 0.0
 178	 1	 1	 0.0	 7.351516447645344	 18.392400000000002	 0.0
 179	 1	 11	 0.15	 8.576769188919569	 19.099800000000002	 0.0
 180	 1	 1	 0.0	 9.802021930193792	 18.392400000000002	 0.0
 181	 1	 11	 0.15	 11.027274671468016	 19.099800000000002	 0.0
 182	 1	 1	 0.0	 12.25252741274224	 18.392400000000002	 0.0
 183	 1	 1	 -0.115	 13.477780154016463	 19.099800000000002	 0.0
 184	 1	 1	 0.0	 14.703032895290686	 18.392400000000002	 0.0
 185	 1	 1	 -0.115	 15.928285636564912	 19.099800000000002	 0.0
 186	 1	 1	 0.0	 17.153538377839137	 18.392400000000002	 0.0
 187	 1	 11	 0.15	 18.378791119113362	 19.099800000000002	 0.0
 188	 1	 1	 0.0	 19.604043860387584	 18.392400000000002	 0.0
 189	 1	 11	 0.15	 20.82929660166181	 19.099800000000002	 0.0
 190	 1	 11	 0.15	 22.05454934293603	 18.392400000000002	 0.0
 191	 1	 7	 -0.585	 1.225252741274224	 -2.1074	 0.0
 192	 1	 2	 0.115	 3.675758223822672	 -1.7844	 0.0
 193	 1	 2	 0.115	 6.12626370637112	 -1.7844	 0.0
 194	 1	 7	 -0.585	 8.576769188919569	 -2.1074	 0.0
 195	 1	 7	 -0.585	 11.027274671468016	 -2.1074	 0.0
 196	 1	 2	 0.115	 13.477780154016463	 -1.7844	 0.0
 197	 1	 2	 0.115	 15.928285636564912	 -1.7844	 0.0
 198	 1	 2	 0.115	 18.378791119113362	 -1.7844	 0.0
 199	 1	 2	 0.115	 20.82929660166181	 -1.7844	 0.0
 200	 1	 2	 0.115	 1.225252741274224	 20.1768	 0.0
 201	 1	 7	 -0.585	 3.675758223822672	 20.4998	 0.0
 202	 1	 2	 0.115	 6.12626370637112	 20.1768	 0.0
 203	 1	 7	 -0.585	 8.576769188919569	 20.4998	 0.0
 204	 1	 7	 -0.585	 11.027274671468016	 20.4998	 0.0
 205	 1	 2	 0.115	 13.477780154016463	 20.1768	 0.0
 206	 1	 2	 0.115	 15.928285636564912	 20.1768	 0.0
 207	 1	 7	 -0.585	 18.378791119113362	 20.4998	 0.0
 208	 1	 7	 -0.585	 20.82929660166181	 20.4998	 0.0
 209	 1	 7	 -0.585	 -1.2124355652982142	 -0.7	 0.0
 210	 1	 7	 -0.585	 -1.2124355652982142	 2.1148	 0.0
 211	 1	 2	 0.115	 22.98725870281187	 -0.5385	 0.0
 212	 1	 2	 0.115	 22.98725870281187	 1.9533	 0.0
 213	 1	 2	 0.115	 -0.9327093598758405	 3.7059000000000006	 0.0
 214	 1	 2	 0.115	 -0.9327093598758405	 6.1977	 0.0
 215	 1	 2	 0.115	 22.98725870281187	 3.7059000000000006	 0.0
 216	 1	 2	 0.115	 22.98725870281187	 6.1977	 0.0
 217	 1	 7	 -0.585	 -1.2124355652982142	 7.788800000000001	 0.0
 218	 1	 2	 0.115	 -0.9327093598758405	 10.4421	 0.0
 219	 1	 2	 0.115	 22.98725870281187	 7.950300000000001	 0.0
 220	 1	 2	 0.115	 22.98725870281187	 10.4421	 0.0
 221	 1	 7	 -0.585	 -1.2124355652982137	 12.0332	 0.0
 222	 1	 2	 0.115	 -0.9327093598758405	 14.686499999999999	 0.0
 223	 1	 7	 -0.585	 23.266984908234246	 12.0332	 0.0
 224	 1	 2	 0.115	 22.98725870281187	 14.686499999999999	 0.0
 225	 1	 2	 0.115	 -0.9327093598758405	 16.439100000000003	 0.0
 226	 1	 2	 0.115	 -0.9327093598758405	 18.9309	 0.0
 227	 1	 2	 0.115	 22.98725870281187	 16.439100000000003	 0.0
 228	 1	 7	 -0.585	 23.266984908234246	 19.0924	 0.0
 229	 1	 5	 0.435	 1.225252741274224	 -2.8074000000000003	 -0.7
 230	 1	 5	 0.435	 8.576769188919569	 -2.8074000000000003	 0.7
 231	 1	 5	 0.435	 11.027274671468016	 -2.8074000000000003	 -0.7
 232	 1	 5	 0.435	 3.675758223822672	 21.1998	 -0.7
 233	 1	 5	 0.435	 8.576769188919569	 21.1998	 0.7
 234	 1	 5	 0.435	 11.027274671468016	 21.1998	 -0.7
 235	 1	 5	 0.435	 18.378791119113362	 21.1998	 -0.7
 236	 1	 5	 0.435	 20.82929660166181	 21.1998	 0.7
 237	 1	 5	 0.435	 -1.8186533479473213	 -1.0499999999999998	 -0.7
 238	 1	 5	 0.435	 -1.8186533479473213	 2.4648	 -0.7
 239	 1	 5	 0.435	 -1.8186533479473213	 7.438800000000001	 -0.7
 240	 1	 5	 0.435	 -1.8186533479473206	 11.683200000000001	 0.7
 241	 1	 5	 0.435	 23.873202690883353	 11.683200000000001	 -0.7
 242	 1	 5	 0.435	 23.873202690883353	 19.4424	 0.7
 
 Bonds 
 
1	 1	 1	 2
2	 2	 2	 3
3	 3	 3	 4
4	 3	 4	 5
5	 3	 5	 6
6	 3	 6	 7
7	 2	 7	 8
8	 2	 8	 9
9	 2	 9	 10
10	 2	 10	 11
11	 3	 11	 12
12	 3	 12	 13
13	 3	 13	 14
14	 3	 14	 15
15	 3	 15	 16
16	 3	 16	 17
17	 3	 17	 18
18	 3	 18	 19
19	 2	 20	 21
20	 3	 21	 22
21	 3	 22	 23
22	 3	 23	 24
23	 3	 24	 25
24	 3	 25	 26
25	 3	 26	 27
26	 3	 27	 28
27	 3	 28	 29
28	 3	 29	 30
29	 3	 30	 31
30	 3	 31	 32
31	 3	 32	 33
32	 3	 33	 34
33	 3	 34	 35
34	 3	 35	 36
35	 3	 36	 37
36	 3	 37	 38
37	 3	 39	 40
38	 3	 40	 41
39	 3	 41	 42
40	 3	 42	 43
41	 3	 43	 44
42	 3	 44	 45
43	 3	 45	 46
44	 3	 46	 47
45	 3	 47	 48
46	 3	 48	 49
47	 3	 49	 50
48	 3	 50	 51
49	 3	 51	 52
50	 3	 52	 53
51	 3	 53	 54
52	 3	 54	 55
53	 3	 55	 56
54	 3	 56	 57
55	 3	 58	 59
56	 3	 59	 60
57	 3	 60	 61
58	 3	 61	 62
59	 3	 62	 63
60	 3	 63	 64
61	 3	 64	 65
62	 3	 65	 66
63	 3	 66	 67
64	 3	 67	 68
65	 3	 68	 69
66	 3	 69	 70
67	 3	 70	 71
68	 3	 71	 72
69	 3	 72	 73
70	 3	 73	 74
71	 3	 74	 75
72	 3	 75	 76
73	 2	 77	 78
74	 3	 78	 79
75	 3	 79	 80
76	 3	 80	 81
77	 3	 81	 82
78	 3	 82	 83
79	 3	 83	 84
80	 3	 84	 85
81	 3	 85	 86
82	 3	 86	 87
83	 3	 87	 88
84	 3	 88	 89
85	 3	 89	 90
86	 3	 90	 91
87	 3	 91	 92
88	 3	 92	 93
89	 3	 93	 94
90	 3	 94	 95
91	 3	 96	 97
92	 3	 97	 98
93	 3	 98	 99
94	 3	 99	 100
95	 3	 100	 101
96	 3	 101	 102
97	 3	 102	 103
98	 3	 103	 104
99	 3	 104	 105
100	 3	 105	 106
101	 3	 106	 107
102	 3	 107	 108
103	 3	 108	 109
104	 3	 109	 110
105	 3	 110	 111
106	 3	 111	 112
107	 3	 112	 113
108	 3	 113	 114
109	 2	 115	 116
110	 3	 116	 117
111	 3	 117	 118
112	 3	 118	 119
113	 3	 119	 120
114	 3	 120	 121
115	 3	 121	 122
116	 3	 122	 123
117	 3	 123	 124
118	 3	 124	 125
119	 3	 125	 126
120	 3	 126	 127
121	 3	 127	 128
122	 3	 128	 129
123	 3	 129	 130
124	 3	 130	 131
125	 3	 131	 132
126	 2	 132	 133
127	 3	 134	 135
128	 3	 135	 136
129	 3	 136	 137
130	 3	 137	 138
131	 3	 138	 139
132	 3	 139	 140
133	 3	 140	 141
134	 3	 141	 142
135	 3	 142	 143
136	 3	 143	 144
137	 3	 144	 145
138	 3	 145	 146
139	 3	 146	 147
140	 3	 147	 148
141	 3	 148	 149
142	 3	 149	 150
143	 3	 150	 151
144	 3	 151	 152
145	 3	 153	 154
146	 3	 154	 155
147	 3	 155	 156
148	 3	 156	 157
149	 3	 157	 158
150	 3	 158	 159
151	 3	 159	 160
152	 3	 160	 161
153	 3	 161	 162
154	 3	 162	 163
155	 3	 163	 164
156	 3	 164	 165
157	 3	 165	 166
158	 3	 166	 167
159	 3	 167	 168
160	 3	 168	 169
161	 3	 169	 170
162	 3	 170	 171
163	 3	 172	 173
164	 3	 173	 174
165	 2	 174	 175
166	 2	 175	 176
167	 3	 176	 177
168	 3	 177	 178
169	 2	 178	 179
170	 2	 179	 180
171	 2	 180	 181
172	 2	 181	 182
173	 3	 182	 183
174	 3	 183	 184
175	 3	 184	 185
176	 3	 185	 186
177	 2	 186	 187
178	 2	 187	 188
179	 2	 188	 189
180	 1	 189	 190
181	 1	 1	 20
182	 3	 3	 22
183	 3	 5	 24
184	 3	 7	 26
185	 3	 9	 28
186	 3	 11	 30
187	 3	 13	 32
188	 3	 15	 34
189	 3	 17	 36
190	 3	 19	 38
191	 3	 21	 40
192	 3	 23	 42
193	 3	 25	 44
194	 3	 27	 46
195	 3	 29	 48
196	 3	 31	 50
197	 3	 33	 52
198	 3	 35	 54
199	 3	 37	 56
200	 3	 39	 58
201	 3	 41	 60
202	 3	 43	 62
203	 3	 45	 64
204	 3	 47	 66
205	 3	 49	 68
206	 3	 51	 70
207	 3	 53	 72
208	 3	 55	 74
209	 3	 57	 76
210	 3	 59	 78
211	 3	 61	 80
212	 3	 63	 82
213	 3	 65	 84
214	 3	 67	 86
215	 3	 69	 88
216	 3	 71	 90
217	 3	 73	 92
218	 3	 75	 94
219	 2	 77	 96
220	 3	 79	 98
221	 3	 81	 100
222	 3	 83	 102
223	 3	 85	 104
224	 3	 87	 106
225	 3	 89	 108
226	 3	 91	 110
227	 3	 93	 112
228	 3	 95	 114
229	 3	 97	 116
230	 3	 99	 118
231	 3	 101	 120
232	 3	 103	 122
233	 3	 105	 124
234	 3	 107	 126
235	 3	 109	 128
236	 3	 111	 130
237	 3	 113	 132
238	 2	 115	 134
239	 3	 117	 136
240	 3	 119	 138
241	 3	 121	 140
242	 3	 123	 142
243	 3	 125	 144
244	 3	 127	 146
245	 3	 129	 148
246	 3	 131	 150
247	 2	 133	 152
248	 3	 135	 154
249	 3	 137	 156
250	 3	 139	 158
251	 3	 141	 160
252	 3	 143	 162
253	 3	 145	 164
254	 3	 147	 166
255	 3	 149	 168
256	 3	 151	 170
257	 3	 153	 172
258	 3	 155	 174
259	 3	 157	 176
260	 3	 159	 178
261	 3	 161	 180
262	 3	 163	 182
263	 3	 165	 184
264	 3	 167	 186
265	 3	 169	 188
266	 2	 171	 190
267	 4	 2	 191
268	 5	 4	 192
269	 5	 6	 193
270	 4	 8	 194
271	 4	 10	 195
272	 5	 12	 196
273	 5	 14	 197
274	 5	 16	 198
275	 5	 18	 199
276	 5	 173	 200
277	 4	 175	 201
278	 5	 177	 202
279	 4	 179	 203
280	 4	 181	 204
281	 5	 183	 205
282	 5	 185	 206
283	 4	 187	 207
284	 4	 189	 208
285	 4	 1	 209
286	 4	 20	 210
287	 5	 19	 211
288	 5	 38	 212
289	 5	 39	 213
290	 5	 58	 214
291	 5	 57	 215
292	 5	 76	 216
293	 4	 77	 217
294	 5	 96	 218
295	 5	 95	 219
296	 5	 114	 220
297	 4	 115	 221
298	 5	 134	 222
299	 4	 133	 223
300	 5	 152	 224
301	 5	 153	 225
302	 5	 172	 226
303	 5	 171	 227
304	 4	 190	 228
305	 6	 191	 229
306	 6	 194	 230
307	 6	 195	 231
308	 6	 201	 232
309	 6	 203	 233
310	 6	 204	 234
311	 6	 207	 235
312	 6	 208	 236
313	 6	 209	 237
314	 6	 210	 238
315	 6	 217	 239
316	 6	 221	 240
317	 6	 223	 241
318	 6	 228	 242

 Angles 
 
1	 1	 209	 1	 2
2	 1	 209	 1	 20
3	 2	 2	 1	 20
4	 3	 1	 2	 3
5	 1	 1	 2	 191
6	 4	 3	 2	 191
7	 5	 2	 3	 4
8	 5	 2	 3	 22
9	 6	 4	 3	 22
10	 6	 3	 4	 5
11	 7	 3	 4	 192
12	 7	 5	 4	 192
13	 6	 4	 5	 6
14	 6	 4	 5	 24
15	 6	 6	 5	 24
16	 7	 193	 6	 5
17	 7	 193	 6	 7
18	 6	 5	 6	 7
19	 6	 26	 7	 6
20	 5	 26	 7	 8
21	 5	 6	 7	 8
22	 4	 9	 8	 194
23	 8	 9	 8	 7
24	 4	 194	 8	 7
25	 5	 10	 9	 28
26	 9	 10	 9	 8
27	 5	 28	 9	 8
28	 8	 9	 10	 11
29	 4	 9	 10	 195
30	 4	 11	 10	 195
31	 5	 10	 11	 12
32	 5	 10	 11	 30
33	 6	 12	 11	 30
34	 7	 11	 12	 196
35	 6	 11	 12	 13
36	 7	 196	 12	 13
37	 6	 12	 13	 14
38	 6	 12	 13	 32
39	 6	 14	 13	 32
40	 7	 197	 14	 13
41	 7	 197	 14	 15
42	 6	 13	 14	 15
43	 6	 34	 15	 14
44	 6	 34	 15	 16
45	 6	 14	 15	 16
46	 7	 17	 16	 198
47	 6	 17	 16	 15
48	 7	 198	 16	 15
49	 6	 18	 17	 36
50	 6	 18	 17	 16
51	 6	 36	 17	 16
52	 6	 17	 18	 19
53	 7	 17	 18	 199
54	 7	 19	 18	 199
55	 7	 18	 19	 211
56	 6	 18	 19	 38
57	 7	 211	 19	 38
58	 1	 1	 20	 210
59	 3	 1	 20	 21
60	 4	 210	 20	 21
61	 5	 20	 21	 22
62	 5	 20	 21	 40
63	 6	 22	 21	 40
64	 6	 3	 22	 21
65	 6	 3	 22	 23
66	 6	 21	 22	 23
67	 6	 42	 23	 22
68	 6	 42	 23	 24
69	 6	 22	 23	 24
70	 6	 25	 24	 5
71	 6	 25	 24	 23
72	 6	 5	 24	 23
73	 6	 26	 25	 44
74	 6	 26	 25	 24
75	 6	 44	 25	 24
76	 6	 25	 26	 27
77	 6	 25	 26	 7
78	 6	 27	 26	 7
79	 6	 26	 27	 28
80	 6	 26	 27	 46
81	 6	 28	 27	 46
82	 6	 9	 28	 27
83	 6	 9	 28	 29
84	 6	 27	 28	 29
85	 6	 28	 29	 30
86	 6	 28	 29	 48
87	 6	 30	 29	 48
88	 6	 11	 30	 29
89	 6	 11	 30	 31
90	 6	 29	 30	 31
91	 6	 50	 31	 30
92	 6	 50	 31	 32
93	 6	 30	 31	 32
94	 6	 33	 32	 13
95	 6	 33	 32	 31
96	 6	 13	 32	 31
97	 6	 34	 33	 52
98	 6	 34	 33	 32
99	 6	 52	 33	 32
100	 6	 33	 34	 35
101	 6	 33	 34	 15
102	 6	 35	 34	 15
103	 6	 34	 35	 36
104	 6	 34	 35	 54
105	 6	 36	 35	 54
106	 6	 17	 36	 35
107	 6	 17	 36	 37
108	 6	 35	 36	 37
109	 6	 36	 37	 38
110	 6	 36	 37	 56
111	 6	 38	 37	 56
112	 7	 19	 38	 212
113	 6	 19	 38	 37
114	 7	 212	 38	 37
115	 7	 58	 39	 213
116	 6	 58	 39	 40
117	 7	 213	 39	 40
118	 6	 41	 40	 21
119	 6	 41	 40	 39
120	 6	 21	 40	 39
121	 6	 42	 41	 60
122	 6	 42	 41	 40
123	 6	 60	 41	 40
124	 6	 41	 42	 43
125	 6	 41	 42	 23
126	 6	 43	 42	 23
127	 6	 42	 43	 44
128	 6	 42	 43	 62
129	 6	 44	 43	 62
130	 6	 25	 44	 43
131	 6	 25	 44	 45
132	 6	 43	 44	 45
133	 6	 44	 45	 46
134	 6	 44	 45	 64
135	 6	 46	 45	 64
136	 6	 27	 46	 45
137	 6	 27	 46	 47
138	 6	 45	 46	 47
139	 6	 66	 47	 46
140	 6	 66	 47	 48
141	 6	 46	 47	 48
142	 6	 49	 48	 29
143	 6	 49	 48	 47
144	 6	 29	 48	 47
145	 6	 50	 49	 68
146	 6	 50	 49	 48
147	 6	 68	 49	 48
148	 6	 49	 50	 51
149	 6	 49	 50	 31
150	 6	 51	 50	 31
151	 6	 50	 51	 52
152	 6	 50	 51	 70
153	 6	 52	 51	 70
154	 6	 33	 52	 51
155	 6	 33	 52	 53
156	 6	 51	 52	 53
157	 6	 52	 53	 54
158	 6	 52	 53	 72
159	 6	 54	 53	 72
160	 6	 35	 54	 53
161	 6	 35	 54	 55
162	 6	 53	 54	 55
163	 6	 74	 55	 54
164	 6	 74	 55	 56
165	 6	 54	 55	 56
166	 6	 57	 56	 37
167	 6	 57	 56	 55
168	 6	 37	 56	 55
169	 7	 76	 57	 215
170	 6	 76	 57	 56
171	 7	 215	 57	 56
172	 7	 59	 58	 214
173	 6	 59	 58	 39
174	 7	 214	 58	 39
175	 6	 58	 59	 60
176	 6	 58	 59	 78
177	 6	 60	 59	 78
178	 6	 41	 60	 59
179	 6	 41	 60	 61
180	 6	 59	 60	 61
181	 6	 60	 61	 62
182	 6	 60	 61	 80
183	 6	 62	 61	 80
184	 6	 43	 62	 61
185	 6	 43	 62	 63
186	 6	 61	 62	 63
187	 6	 82	 63	 62
188	 6	 82	 63	 64
189	 6	 62	 63	 64
190	 6	 65	 64	 45
191	 6	 65	 64	 63
192	 6	 45	 64	 63
193	 6	 66	 65	 84
194	 6	 66	 65	 64
195	 6	 84	 65	 64
196	 6	 65	 66	 67
197	 6	 65	 66	 47
198	 6	 67	 66	 47
199	 6	 66	 67	 68
200	 6	 66	 67	 86
201	 6	 68	 67	 86
202	 6	 49	 68	 67
203	 6	 49	 68	 69
204	 6	 67	 68	 69
205	 6	 68	 69	 70
206	 6	 68	 69	 88
207	 6	 70	 69	 88
208	 6	 51	 70	 69
209	 6	 51	 70	 71
210	 6	 69	 70	 71
211	 6	 90	 71	 70
212	 6	 90	 71	 72
213	 6	 70	 71	 72
214	 6	 73	 72	 53
215	 6	 73	 72	 71
216	 6	 53	 72	 71
217	 6	 74	 73	 92
218	 6	 74	 73	 72
219	 6	 92	 73	 72
220	 6	 73	 74	 75
221	 6	 73	 74	 55
222	 6	 75	 74	 55
223	 6	 74	 75	 76
224	 6	 74	 75	 94
225	 6	 76	 75	 94
226	 6	 57	 76	 75
227	 7	 57	 76	 216
228	 7	 75	 76	 216
229	 4	 217	 77	 78
230	 4	 217	 77	 96
231	 8	 78	 77	 96
232	 5	 59	 78	 77
233	 6	 59	 78	 79
234	 5	 77	 78	 79
235	 6	 98	 79	 78
236	 6	 98	 79	 80
237	 6	 78	 79	 80
238	 6	 81	 80	 61
239	 6	 81	 80	 79
240	 6	 61	 80	 79
241	 6	 82	 81	 100
242	 6	 82	 81	 80
243	 6	 100	 81	 80
244	 6	 81	 82	 83
245	 6	 81	 82	 63
246	 6	 83	 82	 63
247	 6	 82	 83	 84
248	 6	 82	 83	 102
249	 6	 84	 83	 102
250	 6	 65	 84	 83
251	 6	 65	 84	 85
252	 6	 83	 84	 85
253	 6	 84	 85	 86
254	 6	 84	 85	 104
255	 6	 86	 85	 104
256	 6	 67	 86	 85
257	 6	 67	 86	 87
258	 6	 85	 86	 87
259	 6	 106	 87	 86
260	 6	 106	 87	 88
261	 6	 86	 87	 88
262	 6	 89	 88	 69
263	 6	 89	 88	 87
264	 6	 69	 88	 87
265	 6	 90	 89	 108
266	 6	 90	 89	 88
267	 6	 108	 89	 88
268	 6	 89	 90	 91
269	 6	 89	 90	 71
270	 6	 91	 90	 71
271	 6	 90	 91	 92
272	 6	 90	 91	 110
273	 6	 92	 91	 110
274	 6	 73	 92	 91
275	 6	 73	 92	 93
276	 6	 91	 92	 93
277	 6	 92	 93	 94
278	 6	 92	 93	 112
279	 6	 94	 93	 112
280	 6	 75	 94	 93
281	 6	 75	 94	 95
282	 6	 93	 94	 95
283	 7	 114	 95	 219
284	 6	 114	 95	 94
285	 7	 219	 95	 94
286	 7	 97	 96	 218
287	 5	 97	 96	 77
288	 10	 218	 96	 77
289	 6	 98	 97	 116
290	 6	 98	 97	 96
291	 6	 116	 97	 96
292	 6	 97	 98	 99
293	 6	 97	 98	 79
294	 6	 99	 98	 79
295	 6	 98	 99	 100
296	 6	 98	 99	 118
297	 6	 100	 99	 118
298	 6	 81	 100	 99
299	 6	 81	 100	 101
300	 6	 99	 100	 101
301	 6	 100	 101	 102
302	 6	 100	 101	 120
303	 6	 102	 101	 120
304	 6	 83	 102	 101
305	 6	 83	 102	 103
306	 6	 101	 102	 103
307	 6	 122	 103	 102
308	 6	 122	 103	 104
309	 6	 102	 103	 104
310	 6	 105	 104	 85
311	 6	 105	 104	 103
312	 6	 85	 104	 103
313	 6	 106	 105	 124
314	 6	 106	 105	 104
315	 6	 124	 105	 104
316	 6	 105	 106	 107
317	 6	 105	 106	 87
318	 6	 107	 106	 87
319	 6	 106	 107	 108
320	 6	 106	 107	 126
321	 6	 108	 107	 126
322	 6	 89	 108	 107
323	 6	 89	 108	 109
324	 6	 107	 108	 109
325	 6	 108	 109	 110
326	 6	 108	 109	 128
327	 6	 110	 109	 128
328	 6	 91	 110	 109
329	 6	 91	 110	 111
330	 6	 109	 110	 111
331	 6	 130	 111	 110
332	 6	 130	 111	 112
333	 6	 110	 111	 112
334	 6	 113	 112	 93
335	 6	 113	 112	 111
336	 6	 93	 112	 111
337	 6	 114	 113	 132
338	 6	 114	 113	 112
339	 6	 132	 113	 112
340	 7	 113	 114	 220
341	 6	 113	 114	 95
342	 7	 220	 114	 95
343	 4	 116	 115	 221
344	 8	 116	 115	 134
345	 4	 221	 115	 134
346	 5	 97	 116	 115
347	 6	 97	 116	 117
348	 5	 115	 116	 117
349	 6	 116	 117	 118
350	 6	 116	 117	 136
351	 6	 118	 117	 136
352	 6	 99	 118	 117
353	 6	 99	 118	 119
354	 6	 117	 118	 119
355	 6	 138	 119	 118
356	 6	 138	 119	 120
357	 6	 118	 119	 120
358	 6	 121	 120	 101
359	 6	 121	 120	 119
360	 6	 101	 120	 119
361	 6	 122	 121	 140
362	 6	 122	 121	 120
363	 6	 140	 121	 120
364	 6	 121	 122	 123
365	 6	 121	 122	 103
366	 6	 123	 122	 103
367	 6	 122	 123	 124
368	 6	 122	 123	 142
369	 6	 124	 123	 142
370	 6	 105	 124	 123
371	 6	 105	 124	 125
372	 6	 123	 124	 125
373	 6	 124	 125	 126
374	 6	 124	 125	 144
375	 6	 126	 125	 144
376	 6	 107	 126	 125
377	 6	 107	 126	 127
378	 6	 125	 126	 127
379	 6	 146	 127	 126
380	 6	 146	 127	 128
381	 6	 126	 127	 128
382	 6	 129	 128	 109
383	 6	 129	 128	 127
384	 6	 109	 128	 127
385	 6	 130	 129	 148
386	 6	 130	 129	 128
387	 6	 148	 129	 128
388	 6	 129	 130	 131
389	 6	 129	 130	 111
390	 6	 131	 130	 111
391	 6	 130	 131	 132
392	 6	 130	 131	 150
393	 6	 132	 131	 150
394	 6	 113	 132	 131
395	 5	 113	 132	 133
396	 5	 131	 132	 133
397	 4	 132	 133	 223
398	 8	 132	 133	 152
399	 4	 223	 133	 152
400	 10	 115	 134	 222
401	 5	 115	 134	 135
402	 7	 222	 134	 135
403	 6	 154	 135	 134
404	 6	 154	 135	 136
405	 6	 134	 135	 136
406	 6	 137	 136	 117
407	 6	 137	 136	 135
408	 6	 117	 136	 135
409	 6	 138	 137	 156
410	 6	 138	 137	 136
411	 6	 156	 137	 136
412	 6	 137	 138	 139
413	 6	 137	 138	 119
414	 6	 139	 138	 119
415	 6	 138	 139	 140
416	 6	 138	 139	 158
417	 6	 140	 139	 158
418	 6	 121	 140	 139
419	 6	 121	 140	 141
420	 6	 139	 140	 141
421	 6	 140	 141	 142
422	 6	 140	 141	 160
423	 6	 142	 141	 160
424	 6	 123	 142	 141
425	 6	 123	 142	 143
426	 6	 141	 142	 143
427	 6	 162	 143	 142
428	 6	 162	 143	 144
429	 6	 142	 143	 144
430	 6	 145	 144	 125
431	 6	 145	 144	 143
432	 6	 125	 144	 143
433	 6	 146	 145	 164
434	 6	 146	 145	 144
435	 6	 164	 145	 144
436	 6	 145	 146	 147
437	 6	 145	 146	 127
438	 6	 147	 146	 127
439	 6	 146	 147	 148
440	 6	 146	 147	 166
441	 6	 148	 147	 166
442	 6	 129	 148	 147
443	 6	 129	 148	 149
444	 6	 147	 148	 149
445	 6	 148	 149	 150
446	 6	 148	 149	 168
447	 6	 150	 149	 168
448	 6	 131	 150	 149
449	 6	 131	 150	 151
450	 6	 149	 150	 151
451	 6	 170	 151	 150
452	 6	 170	 151	 152
453	 6	 150	 151	 152
454	 5	 133	 152	 151
455	 10	 133	 152	 224
456	 7	 151	 152	 224
457	 7	 225	 153	 154
458	 7	 225	 153	 172
459	 6	 154	 153	 172
460	 6	 153	 154	 155
461	 6	 153	 154	 135
462	 6	 155	 154	 135
463	 6	 154	 155	 156
464	 6	 154	 155	 174
465	 6	 156	 155	 174
466	 6	 137	 156	 155
467	 6	 137	 156	 157
468	 6	 155	 156	 157
469	 6	 156	 157	 158
470	 6	 156	 157	 176
471	 6	 158	 157	 176
472	 6	 139	 158	 157
473	 6	 139	 158	 159
474	 6	 157	 158	 159
475	 6	 178	 159	 158
476	 6	 178	 159	 160
477	 6	 158	 159	 160
478	 6	 161	 160	 141
479	 6	 161	 160	 159
480	 6	 141	 160	 159
481	 6	 162	 161	 180
482	 6	 162	 161	 160
483	 6	 180	 161	 160
484	 6	 161	 162	 163
485	 6	 161	 162	 143
486	 6	 163	 162	 143
487	 6	 162	 163	 164
488	 6	 162	 163	 182
489	 6	 164	 163	 182
490	 6	 145	 164	 163
491	 6	 145	 164	 165
492	 6	 163	 164	 165
493	 6	 164	 165	 166
494	 6	 164	 165	 184
495	 6	 166	 165	 184
496	 6	 147	 166	 165
497	 6	 147	 166	 167
498	 6	 165	 166	 167
499	 6	 186	 167	 166
500	 6	 186	 167	 168
501	 6	 166	 167	 168
502	 6	 169	 168	 149
503	 6	 169	 168	 167
504	 6	 149	 168	 167
505	 6	 170	 169	 188
506	 6	 170	 169	 168
507	 6	 188	 169	 168
508	 6	 169	 170	 171
509	 6	 169	 170	 151
510	 6	 171	 170	 151
511	 7	 170	 171	 227
512	 5	 170	 171	 190
513	 10	 227	 171	 190
514	 7	 153	 172	 226
515	 6	 153	 172	 173
516	 7	 226	 172	 173
517	 6	 172	 173	 174
518	 7	 172	 173	 200
519	 7	 174	 173	 200
520	 6	 155	 174	 173
521	 5	 155	 174	 175
522	 5	 173	 174	 175
523	 4	 201	 175	 174
524	 4	 201	 175	 176