# GO
365 atoms 
432 bonds 
817 angles 
1693 dihedrals 
96 impropers 

354 atom types 
11 bond types 
25 angle types 
62 dihedral types 
14 improper types 

0.0	122.0	 xlo xhi 
0.0	120.0	 ylo yhi 
0.0	3.4827	 zlo zhi 


 Masses 
 
1	12.011
2	1.008
3	12.011
4	15.999
5	1.008
6	15.999
7	15.999
8	12.011
9	15.999
10	15.999
11	12.011
12	12.011
13	15.999
354	40.08
349	22.99

 Pair Coeffs 
 
1	0.07	3.55
2	0.03	2.42
3	0.066	3.5
4	0.17	3.12
5	0.0	0.0
6	0.14	2.9
7	0.17	3.07
8	0.105	3.75
9	0.21	2.96
10	0.17	3.0
11	0.07	3.55
12	0.105	3.75
13	0.21	2.96
354	0.449657	2.412031
349	0.0005	4.07

 Bond Coeffs 
 
1	469.0	1.4
2	469.0	1.4
3	317.0	1.51
4	317.0	1.51
5	268.0	1.529
6	469.0	1.4
7	450.0	1.364
8	367.0	1.08
9	553.0	0.945
10	320.0	1.41
11	553.0	0.945

 Angle Coeffs 
 
1	35.0	120.0
2	63.0	120.0
3	63.0	120.0
4	70.0	120.0
5	70.0	120.0
6	70.0	120.0
7	63.0	120.0
8	35.0	120.0
9	63.0	120.0
10	35.0	117.0
11	63.0	114.0
12	50.0	109.5
13	40.0	109.5
14	50.0	109.5
15	70.0	130.0
16	50.0	109.5
17	40.0	109.5
18	70.0	124.0
19	70.0	120.0
20	63.0	114.0
21	58.35	112.7
22	70.0	120.0
23	63.0	120.0
24	35.0	113.0
25	55.0	108.5

 Dihedral Coeffs 
 
1	0.0	7.25	0.0	0.0
2	0.0	7.25	0.0	0.0
3	0.0	7.25	0.0	0.0
4	0.0	7.25	0.0	0.0
5	0.0	7.25	0.0	0.0
6	0.0	7.25	0.0	0.0
7	0.0	7.25	0.0	0.0
8	0.0	7.25	0.0	0.0
9	0.0	7.25	0.0	0.0
10	0.0	7.25	0.0	0.0
11	0.0	7.25	0.0	0.0
12	0.0	7.25	0.0	0.0
13	0.0	7.25	0.0	0.0
14	0.0	7.25	0.0	0.0
15	0.0	7.25	0.0	0.0
16	0.0	0.0	0.0	0.0
17	0.0	0.0	0.0	0.0
18	0.0	0.0	0.0	0.0
19	0.0	0.0	0.468	0.0
20	0.0	-8.0	0.0	0.0
21	0.0	0.0	0.468	0.0
22	2.817	-0.169	0.543	0.0
23	0.0	-8.0	0.0	0.0
24	1.711	-0.5	0.663	0.0
25	0.0	-8.0	0.0	0.0
26	0.0	-8.0	0.0	0.0
27	0.0	0.0	0.318	0.0
28	0.0	0.0	0.0	0.0
29	0.0	-8.0	0.0	0.0
30	0.0	0.0	0.0	0.0
31	0.0	7.25	0.0	0.0
32	0.0	7.25	0.0	0.0
33	0.0	7.25	0.0	0.0
34	0.0	0.0	0.0	0.0
35	0.0	0.0	0.468	0.0
36	1.711	-0.5	0.663	0.0
37	-4.344	-1.714	0.0	0.0
38	0.0	0.0	0.366	0.0
39	1.711	-0.5	0.663	0.0
40	-4.344	-1.714	0.0	0.0
41	0.0	0.0	0.366	0.0
42	-1.552	0.0	0.0	0.0
43	9.508	0.0	0.0	0.0
44	1.3	-0.05	0.2	0.0
45	0.0	7.25	0.0	0.0
46	0.0	0.0	0.0	0.0
47	0.0	0.0	0.0	0.0
48	0.0	0.0	0.0	0.0
49	0.0	7.25	0.0	0.0
50	0.0	7.25	0.0	0.0
51	0.0	7.25	0.0	0.0
52	0.0	0.0	0.0	0.0
53	0.0	7.25	0.0	0.0
54	0.0	7.25	0.0	0.0
55	0.0	7.25	0.0	0.0
56	0.0	0.0	0.0	0.0
57	0.0	1.682	0.0	0.0
58	0.0	1.682	0.0	0.0
59	0.0	1.682	0.0	0.0
60	-0.356	-0.174	0.492	0.0
61	-0.9	0.0	0.0	0.0
62	-0.9	0.0	0.0	0.0

 Improper Coeffs 
 
1	5.0	180.0
2	5.0	180.0
3	5.0	180.0
4	5.0	180.0
5	5.0	180.0
6	5.0	180.0
7	5.0	180.0
8	5.0	180.0
9	5.0	180.0
10	5.0	180.0
11	5.0	180.0
12	5.0	180.0
13	5.0	180.0
14	5.0	180.0

 Atoms 
 
1	 1	 1	 -0.115	 0.0	 0.0	 0.0
 2	 1	 11	 0.15	 1.225252741274224	 -0.7074	 0.0
 3	 1	 1	 0.0	 2.450505482548448	 0.0	 0.0
 4	 1	 1	 -0.115	 3.675758223822672	 -0.7074	 0.0
 5	 1	 1	 0.0	 4.901010965096896	 0.0	 0.0
 6	 1	 1	 -0.115	 6.12626370637112	 -0.7074	 0.0
 7	 1	 1	 0.0	 7.351516447645344	 0.0	 0.0
 8	 1	 1	 -0.115	 8.576769188919569	 -0.7074	 0.0
 9	 1	 1	 0.0	 9.802021930193792	 0.0	 0.0
 10	 1	 1	 -0.115	 11.027274671468016	 -0.7074	 0.0
 11	 1	 3	 0.265	 12.25252741274224	 0.0	 0.0
 12	 1	 1	 -0.115	 13.477780154016463	 -0.7074	 0.0
 13	 1	 3	 0.265	 14.703032895290686	 0.0	 0.0
 14	 1	 11	 0.15	 15.928285636564912	 -0.7074	 0.0
 15	 1	 1	 0.0	 17.153538377839137	 0.0	 0.0
 16	 1	 1	 -0.115	 18.378791119113362	 -0.7074	 0.0
 17	 1	 1	 -0.115	 19.604043860387584	 0.0	 0.0
 18	 1	 11	 0.15	 0.0	 1.4148	 0.0
 19	 1	 3	 0.265	 1.225252741274224	 2.1222000000000003	 0.0
 20	 1	 3	 0.265	 2.450505482548448	 1.4148	 0.0
 21	 1	 3	 0.265	 3.675758223822672	 2.1222000000000003	 0.0
 22	 1	 1	 0.0	 4.901010965096896	 1.4148	 0.0
 23	 1	 1	 0.0	 6.12626370637112	 2.1222000000000003	 0.0
 24	 1	 3	 0.265	 7.351516447645344	 1.4148	 0.0
 25	 1	 3	 0.265	 8.576769188919569	 2.1222000000000003	 0.0
 26	 1	 3	 0.265	 9.802021930193792	 1.4148	 0.0
 27	 1	 1	 0.0	 11.027274671468016	 2.1222000000000003	 0.0
 28	 1	 3	 0.265	 12.25252741274224	 1.4148	 0.0
 29	 1	 3	 0.265	 13.477780154016463	 2.1222000000000003	 0.0
 30	 1	 1	 0.0	 14.703032895290686	 1.4148	 0.0
 31	 1	 3	 0.265	 15.928285636564912	 2.1222000000000003	 0.0
 32	 1	 3	 0.265	 17.153538377839137	 1.4148	 0.0
 33	 1	 1	 0.0	 18.378791119113362	 2.1222000000000003	 0.0
 34	 1	 1	 -0.115	 19.604043860387584	 1.4148	 0.0
 35	 1	 1	 -0.115	 0.0	 4.244400000000001	 0.0
 36	 1	 1	 0.0	 1.225252741274224	 3.537000000000001	 0.0
 37	 1	 1	 0.0	 2.450505482548448	 4.244400000000001	 0.0
 38	 1	 3	 0.265	 3.675758223822672	 3.537000000000001	 0.0
 39	 1	 3	 0.265	 4.901010965096896	 4.244400000000001	 0.0
 40	 1	 1	 0.0	 6.12626370637112	 3.537000000000001	 0.0
 41	 1	 1	 0.0	 7.351516447645344	 4.244400000000001	 0.0
 42	 1	 1	 0.0	 8.576769188919569	 3.537000000000001	 0.0
 43	 1	 1	 0.0	 9.802021930193792	 4.244400000000001	 0.0
 44	 1	 3	 0.265	 11.027274671468016	 3.537000000000001	 0.0
 45	 1	 1	 0.0	 12.25252741274224	 4.244400000000001	 0.0
 46	 1	 3	 0.265	 13.477780154016463	 3.537000000000001	 0.0
 47	 1	 3	 0.265	 14.703032895290686	 4.244400000000001	 0.0
 48	 1	 1	 0.0	 15.928285636564912	 3.537000000000001	 0.0
 49	 1	 3	 0.265	 17.153538377839137	 4.244400000000001	 0.0
 50	 1	 1	 0.0	 18.378791119113362	 3.537000000000001	 0.0
 51	 1	 1	 -0.115	 19.604043860387584	 4.244400000000001	 0.0
 52	 1	 1	 -0.115	 0.0	 5.6592	 0.0
 53	 1	 3	 0.265	 1.225252741274224	 6.3666	 0.0
 54	 1	 1	 0.0	 2.450505482548448	 5.6592	 0.0
 55	 1	 3	 0.265	 3.675758223822672	 6.3666	 0.0
 56	 1	 3	 0.265	 4.901010965096896	 5.6592	 0.0
 57	 1	 3	 0.265	 6.12626370637112	 6.3666	 0.0
 58	 1	 3	 0.265	 7.351516447645344	 5.6592	 0.0
 59	 1	 3	 0.265	 8.576769188919569	 6.3666	 0.0
 60	 1	 3	 0.265	 9.802021930193792	 5.6592	 0.0
 61	 1	 1	 0.0	 11.027274671468016	 6.3666	 0.0
 62	 1	 3	 0.265	 12.25252741274224	 5.6592	 0.0
 63	 1	 1	 0.0	 13.477780154016463	 6.3666	 0.0
 64	 1	 1	 0.0	 14.703032895290686	 5.6592	 0.0
 65	 1	 1	 0.0	 15.928285636564912	 6.3666	 0.0
 66	 1	 3	 0.265	 17.153538377839137	 5.6592	 0.0
 67	 1	 1	 0.0	 18.378791119113362	 6.3666	 0.0
 68	 1	 1	 -0.115	 19.604043860387584	 5.6592	 0.0
 69	 1	 11	 0.15	 0.0	 8.488800000000001	 0.0
 70	 1	 1	 0.0	 1.225252741274224	 7.781400000000001	 0.0
 71	 1	 3	 0.265	 2.450505482548448	 8.488800000000001	 0.0
 72	 1	 1	 0.0	 3.675758223822672	 7.781400000000001	 0.0
 73	 1	 3	 0.265	 4.901010965096896	 8.488800000000001	 0.0
 74	 1	 1	 0.0	 6.12626370637112	 7.781400000000001	 0.0
 75	 1	 3	 0.265	 7.351516447645344	 8.488800000000001	 0.0
 76	 1	 3	 0.265	 8.576769188919569	 7.781400000000001	 0.0
 77	 1	 3	 0.265	 9.802021930193792	 8.488800000000001	 0.0
 78	 1	 1	 0.0	 11.027274671468016	 7.781400000000001	 0.0
 79	 1	 1	 0.0	 12.25252741274224	 8.488800000000001	 0.0
 80	 1	 3	 0.265	 13.477780154016463	 7.781400000000001	 0.0
 81	 1	 1	 0.0	 14.703032895290686	 8.488800000000001	 0.0
 82	 1	 3	 0.265	 15.928285636564912	 7.781400000000001	 0.0
 83	 1	 1	 0.0	 17.153538377839137	 8.488800000000001	 0.0
 84	 1	 1	 0.0	 18.378791119113362	 7.781400000000001	 0.0
 85	 1	 11	 0.15	 19.604043860387584	 8.488800000000001	 0.0
 86	 1	 11	 0.15	 0.0	 9.9036	 0.0
 87	 1	 1	 0.0	 1.225252741274224	 10.611	 0.0
 88	 1	 3	 0.265	 2.450505482548448	 9.9036	 0.0
 89	 1	 1	 0.0	 3.675758223822672	 10.611	 0.0
 90	 1	 1	 0.0	 4.901010965096896	 9.9036	 0.0
 91	 1	 1	 0.0	 6.12626370637112	 10.611	 0.0
 92	 1	 3	 0.265	 7.351516447645344	 9.9036	 0.0
 93	 1	 3	 0.265	 8.576769188919569	 10.611	 0.0
 94	 1	 3	 0.265	 9.802021930193792	 9.9036	 0.0
 95	 1	 3	 0.265	 11.027274671468016	 10.611	 0.0
 96	 1	 3	 0.265	 12.25252741274224	 9.9036	 0.0
 97	 1	 1	 0.0	 13.477780154016463	 10.611	 0.0
 98	 1	 3	 0.265	 14.703032895290686	 9.9036	 0.0
 99	 1	 3	 0.265	 15.928285636564912	 10.611	 0.0
 100	 1	 3	 0.265	 17.153538377839137	 9.9036	 0.0
 101	 1	 1	 0.0	 18.378791119113362	 10.611	 0.0
 102	 1	 1	 -0.115	 19.604043860387584	 9.9036	 0.0
 103	 1	 11	 0.15	 0.0	 12.733200000000002	 0.0
 104	 1	 3	 0.265	 1.225252741274224	 12.025800000000002	 0.0
 105	 1	 3	 0.265	 2.450505482548448	 12.733200000000002	 0.0
 106	 1	 3	 0.265	 3.675758223822672	 12.025800000000002	 0.0
 107	 1	 3	 0.265	 4.901010965096896	 12.733200000000002	 0.0
 108	 1	 3	 0.265	 6.12626370637112	 12.025800000000002	 0.0
 109	 1	 3	 0.265	 7.351516447645344	 12.733200000000002	 0.0
 110	 1	 3	 0.265	 8.576769188919569	 12.025800000000002	 0.0
 111	 1	 1	 0.0	 9.802021930193792	 12.733200000000002	 0.0
 112	 1	 1	 0.0	 11.027274671468016	 12.025800000000002	 0.0
 113	 1	 3	 0.265	 12.25252741274224	 12.733200000000002	 0.0
 114	 1	 3	 0.265	 13.477780154016463	 12.025800000000002	 0.0
 115	 1	 1	 0.0	 14.703032895290686	 12.733200000000002	 0.0
 116	 1	 1	 0.0	 15.928285636564912	 12.025800000000002	 0.0
 117	 1	 3	 0.265	 17.153538377839137	 12.733200000000002	 0.0
 118	 1	 3	 0.265	 18.378791119113362	 12.025800000000002	 0.0
 119	 1	 11	 0.15	 19.604043860387584	 12.733200000000002	 0.0
 120	 1	 1	 -0.115	 0.0	 14.148	 0.0
 121	 1	 1	 0.0	 1.225252741274224	 14.8554	 0.0
 122	 1	 3	 0.265	 2.450505482548448	 14.148	 0.0
 123	 1	 3	 0.265	 3.675758223822672	 14.8554	 0.0
 124	 1	 1	 0.0	 4.901010965096896	 14.148	 0.0
 125	 1	 1	 0.0	 6.12626370637112	 14.8554	 0.0
 126	 1	 3	 0.265	 7.351516447645344	 14.148	 0.0
 127	 1	 3	 0.265	 8.576769188919569	 14.8554	 0.0
 128	 1	 3	 0.265	 9.802021930193792	 14.148	 0.0
 129	 1	 1	 0.0	 11.027274671468016	 14.8554	 0.0
 130	 1	 3	 0.265	 12.25252741274224	 14.148	 0.0
 131	 1	 1	 0.0	 13.477780154016463	 14.8554	 0.0
 132	 1	 3	 0.265	 14.703032895290686	 14.148	 0.0
 133	 1	 3	 0.265	 15.928285636564912	 14.8554	 0.0
 134	 1	 3	 0.265	 17.153538377839137	 14.148	 0.0
 135	 1	 1	 0.0	 18.378791119113362	 14.8554	 0.0
 136	 1	 1	 -0.115	 19.604043860387584	 14.148	 0.0
 137	 1	 1	 -0.115	 0.0	 16.977600000000002	 0.0
 138	 1	 1	 0.0	 1.225252741274224	 16.270200000000003	 0.0
 139	 1	 3	 0.265	 2.450505482548448	 16.977600000000002	 0.0
 140	 1	 3	 0.265	 3.675758223822672	 16.270200000000003	 0.0
 141	 1	 1	 0.0	 4.901010965096896	 16.977600000000002	 0.0
 142	 1	 1	 0.0	 6.12626370637112	 16.270200000000003	 0.0
 143	 1	 3	 0.265	 7.351516447645344	 16.977600000000002	 0.0
 144	 1	 3	 0.265	 8.576769188919569	 16.270200000000003	 0.0
 145	 1	 3	 0.265	 9.802021930193792	 16.977600000000002	 0.0
 146	 1	 3	 0.265	 11.027274671468016	 16.270200000000003	 0.0
 147	 1	 1	 0.0	 12.25252741274224	 16.977600000000002	 0.0
 148	 1	 3	 0.265	 13.477780154016463	 16.270200000000003	 0.0
 149	 1	 3	 0.265	 14.703032895290686	 16.977600000000002	 0.0
 150	 1	 3	 0.265	 15.928285636564912	 16.270200000000003	 0.0
 151	 1	 1	 0.0	 17.153538377839137	 16.977600000000002	 0.0
 152	 1	 3	 0.265	 18.378791119113362	 16.270200000000003	 0.0
 153	 1	 11	 0.15	 19.604043860387584	 16.977600000000002	 0.0
 154	 1	 11	 0.15	 0.0	 18.392400000000002	 0.0
 155	 1	 1	 -0.115	 1.225252741274224	 19.099800000000002	 0.0
 156	 1	 1	 0.0	 2.450505482548448	 18.392400000000002	 0.0
 157	 1	 1	 -0.115	 3.675758223822672	 19.099800000000002	 0.0
 158	 1	 1	 0.0	 4.901010965096896	 18.392400000000002	 0.0
 159	 1	 1	 -0.115	 6.12626370637112	 19.099800000000002	 0.0
 160	 1	 1	 0.0	 7.351516447645344	 18.392400000000002	 0.0
 161	 1	 11	 0.15	 8.576769188919569	 19.099800000000002	 0.0
 162	 1	 1	 0.0	 9.802021930193792	 18.392400000000002	 0.0
 163	 1	 1	 -0.115	 11.027274671468016	 19.099800000000002	 0.0
 164	 1	 1	 0.0	 12.25252741274224	 18.392400000000002	 0.0
 165	 1	 1	 -0.115	 13.477780154016463	 19.099800000000002	 0.0
 166	 1	 1	 0.0	 14.703032895290686	 18.392400000000002	 0.0
 167	 1	 1	 -0.115	 15.928285636564912	 19.099800000000002	 0.0
 168	 1	 3	 0.265	 17.153538377839137	 18.392400000000002	 0.0
 169	 1	 1	 -0.115	 18.378791119113362	 19.099800000000002	 0.0
 170	 1	 1	 -0.115	 19.604043860387584	 18.392400000000002	 0.0
 171	 1	 7	 -0.585	 1.225252741274224	 -2.1074	 0.0
 172	 1	 2	 0.115	 3.675758223822672	 -1.7844	 0.0
 173	 1	 2	 0.115	 6.12626370637112	 -1.7844	 0.0
 174	 1	 2	 0.115	 8.576769188919569	 -1.7844	 0.0
 175	 1	 2	 0.115	 11.027274671468016	 -1.7844	 0.0
 176	 1	 2	 0.115	 13.477780154016463	 -1.7844	 0.0
 177	 1	 7	 -0.585	 15.928285636564912	 -2.1074	 0.0
 178	 1	 2	 0.115	 18.378791119113362	 -1.7844	 0.0
 179	 1	 2	 0.115	 1.225252741274224	 20.1768	 0.0
 180	 1	 2	 0.115	 3.675758223822672	 20.1768	 0.0
 181	 1	 2	 0.115	 6.12626370637112	 20.1768	 0.0
 182	 1	 7	 -0.585	 8.576769188919569	 20.4998	 0.0
 183	 1	 2	 0.115	 11.027274671468016	 20.1768	 0.0
 184	 1	 2	 0.115	 13.477780154016463	 20.1768	 0.0
 185	 1	 2	 0.115	 15.928285636564912	 20.1768	 0.0
 186	 1	 2	 0.115	 18.378791119113362	 20.1768	 0.0
 187	 1	 2	 0.115	 -0.9327093598758405	 -0.5385	 0.0
 188	 1	 7	 -0.585	 -1.2124355652982142	 2.1148	 0.0
 189	 1	 2	 0.115	 20.536753220263424	 -0.5385	 0.0
 190	 1	 2	 0.115	 20.536753220263424	 1.9533	 0.0
 191	 1	 2	 0.115	 -0.9327093598758405	 3.7059000000000006	 0.0
 192	 1	 2	 0.115	 -0.9327093598758405	 6.1977	 0.0
 193	 1	 2	 0.115	 20.536753220263424	 3.7059000000000006	 0.0
 194	 1	 2	 0.115	 20.536753220263424	 6.1977	 0.0
 195	 1	 7	 -0.585	 -1.2124355652982142	 7.788800000000001	 0.0
 196	 1	 7	 -0.585	 -1.2124355652982146	 10.6036	 0.0
 197	 1	 7	 -0.585	 20.8164794256858	 7.788800000000001	 0.0
 198	 1	 2	 0.115	 20.536753220263424	 10.4421	 0.0
 199	 1	 7	 -0.585	 -1.2124355652982137	 12.0332	 0.0
 200	 1	 2	 0.115	 -0.9327093598758405	 14.686499999999999	 0.0
 201	 1	 7	 -0.585	 20.8164794256858	 12.0332	 0.0
 202	 1	 2	 0.115	 20.536753220263424	 14.686499999999999	 0.0
 203	 1	 2	 0.115	 -0.9327093598758405	 16.439100000000003	 0.0
 204	 1	 7	 -0.585	 -1.2124355652982146	 19.0924	 0.0
 205	 1	 7	 -0.585	 20.8164794256858	 16.277600000000003	 0.0
 206	 1	 2	 0.115	 20.536753220263424	 18.9309	 0.0
 207	 1	 5	 0.435	 1.225252741274224	 -2.8074000000000003	 0.7
 208	 1	 5	 0.435	 15.928285636564912	 -2.8074000000000003	 0.7
 209	 1	 5	 0.435	 8.576769188919569	 21.1998	 -0.7
 210	 1	 5	 0.435	 -1.8186533479473213	 2.4648	 -0.7
 211	 1	 5	 0.435	 -1.8186533479473213	 7.438800000000001	 0.7
 212	 1	 5	 0.435	 -1.818653347947322	 10.9536	 -0.7
 213	 1	 5	 0.435	 21.422697208334906	 7.438800000000001	 -0.7
 214	 1	 5	 0.435	 -1.8186533479473206	 11.683200000000001	 0.7
 215	 1	 5	 0.435	 21.422697208334906	 11.683200000000001	 0.7
 216	 1	 5	 0.435	 -1.818653347947322	 19.4424	 -0.7
 217	 1	 5	 0.435	 21.422697208334906	 15.927600000000004	 -0.7
 218	 1	 4	 -0.683	 8.576769188919569	 7.781400000000001	 1.4
 219	 1	 5	 0.418	 8.576769188919569	 7.781400000000001	 2.4
 220	 1	 4	 -0.683	 9.802021930193792	 9.9036	 -1.4
 221	 1	 5	 0.418	 9.802021930193792	 9.9036	 -2.4
 222	 1	 4	 -0.683	 12.25252741274224	 9.9036	 1.4
 223	 1	 5	 0.418	 12.25252741274224	 9.9036	 2.4
 224	 1	 4	 -0.683	 9.802021930193792	 8.488800000000001	 -1.4
 225	 1	 5	 0.418	 9.802021930193792	 8.488800000000001	 -2.4
 226	 1	 4	 -0.683	 14.703032895290686	 9.9036	 -1.4
 227	 1	 5	 0.418	 14.703032895290686	 9.9036	 -2.4
 228	 1	 4	 -0.683	 13.477780154016463	 12.025800000000002	 -1.4
 229	 1	 5	 0.418	 13.477780154016463	 12.025800000000002	 -2.4
 230	 1	 4	 -0.683	 13.477780154016463	 7.781400000000001	 -1.4
 231	 1	 5	 0.418	 13.477780154016463	 7.781400000000001	 -2.4
 232	 1	 4	 -0.683	 7.351516447645344	 9.9036	 -1.4
 233	 1	 5	 0.418	 7.351516447645344	 9.9036	 -2.4
 234	 1	 4	 -0.683	 12.25252741274224	 5.6592	 1.4
 235	 1	 5	 0.418	 12.25252741274224	 5.6592	 2.4
 236	 1	 4	 -0.683	 7.351516447645344	 12.733200000000002	 1.4
 237	 1	 5	 0.418	 7.351516447645344	 12.733200000000002	 2.4
 238	 1	 4	 -0.683	 15.928285636564912	 7.781400000000001	 1.4
 239	 1	 5	 0.418	 15.928285636564912	 7.781400000000001	 2.4
 240	 1	 4	 -0.683	 17.153538377839137	 9.9036	 1.4
 241	 1	 5	 0.418	 17.153538377839137	 9.9036	 2.4
 242	 1	 4	 -0.683	 18.378791119113362	 12.025800000000002	 -1.4
 243	 1	 5	 0.418	 18.378791119113362	 12.025800000000002	 -2.4
 244	 1	 4	 -0.683	 13.477780154016463	 3.537000000000001	 -1.4
 245	 1	 5	 0.418	 13.477780154016463	 3.537000000000001	 -2.4
 246	 1	 4	 -0.683	 12.25252741274224	 12.733200000000002	 1.4
 247	 1	 5	 0.418	 12.25252741274224	 12.733200000000002	 2.4
 248	 1	 4	 -0.683	 7.351516447645344	 8.488800000000001	 -1.4
 249	 1	 5	 0.418	 7.351516447645344	 8.488800000000001	 -2.4
 250	 1	 4	 -0.683	 17.153538377839137	 12.733200000000002	 1.4
 251	 1	 5	 0.418	 17.153538377839137	 12.733200000000002	 2.4
 252	 1	 4	 -0.683	 12.25252741274224	 14.148	 -1.4
 253	 1	 5	 0.418	 12.25252741274224	 14.148	 -2.4
 254	 1	 4	 -0.683	 15.928285636564912	 14.8554	 -1.4
 255	 1	 5	 0.418	 15.928285636564912	 14.8554	 -2.4
 256	 1	 4	 -0.683	 14.703032895290686	 4.244400000000001	 1.4
 257	 1	 5	 0.418	 14.703032895290686	 4.244400000000001	 2.4
 258	 1	 4	 -0.683	 6.12626370637112	 12.025800000000002	 -1.4
 259	 1	 5	 0.418	 6.12626370637112	 12.025800000000002	 -2.4
 260	 1	 4	 -0.683	 8.576769188919569	 14.8554	 -1.4
 261	 1	 5	 0.418	 8.576769188919569	 14.8554	 -2.4
 262	 1	 4	 -0.683	 15.928285636564912	 10.611	 1.4
 263	 1	 5	 0.418	 15.928285636564912	 10.611	 2.4
 264	 1	 4	 -0.683	 17.153538377839137	 4.244400000000001	 -1.4
 265	 1	 5	 0.418	 17.153538377839137	 4.244400000000001	 -2.4
 266	 1	 4	 -0.683	 13.477780154016463	 2.1222000000000003	 1.4
 267	 1	 5	 0.418	 13.477780154016463	 2.1222000000000003	 2.4
 268	 1	 4	 -0.683	 12.25252741274224	 0.0	 -1.4
 269	 1	 5	 0.418	 12.25252741274224	 0.0	 -2.4
 270	 1	 4	 -0.683	 11.027274671468016	 10.611	 -1.4
 271	 1	 5	 0.418	 11.027274671468016	 10.611	 -2.4
 272	 1	 4	 -0.683	 18.378791119113362	 16.270200000000003	 1.4
 273	 1	 5	 0.418	 18.378791119113362	 16.270200000000003	 2.4
 274	 1	 4	 -0.683	 17.153538377839137	 18.392400000000002	 -1.4
 275	 1	 5	 0.418	 17.153538377839137	 18.392400000000002	 -2.4
 276	 1	 4	 -0.683	 17.153538377839137	 14.148	 -1.4
 277	 1	 5	 0.418	 17.153538377839137	 14.148	 -2.4
 278	 1	 4	 -0.683	 15.928285636564912	 2.1222000000000003	 -1.4
 279	 1	 5	 0.418	 15.928285636564912	 2.1222000000000003	 -2.4
 280	 1	 4	 -0.683	 8.576769188919569	 6.3666	 -1.4
 281	 1	 5	 0.418	 8.576769188919569	 6.3666	 -2.4
 282	 1	 4	 -0.683	 8.576769188919569	 10.611	 -1.4
 283	 1	 5	 0.418	 8.576769188919569	 10.611	 -2.4
 284	 1	 4	 -0.683	 9.802021930193792	 5.6592	 1.4
 285	 1	 5	 0.418	 9.802021930193792	 5.6592	 2.4
 286	 1	 4	 -0.683	 15.928285636564912	 16.270200000000003	 -1.4
 287	 1	 5	 0.418	 15.928285636564912	 16.270200000000003	 -2.4
 288	 1	 4	 -0.683	 17.153538377839137	 5.6592	 1.4
 289	 1	 5	 0.418	 17.153538377839137	 5.6592	 2.4
 290	 1	 4	 -0.683	 8.576769188919569	 16.270200000000003	 1.4
 291	 1	 5	 0.418	 8.576769188919569	 16.270200000000003	 2.4
 292	 1	 4	 -0.683	 4.901010965096896	 12.733200000000002	 1.4
 293	 1	 5	 0.418	 4.901010965096896	 12.733200000000002	 2.4
 294	 1	 4	 -0.683	 9.802021930193792	 14.148	 1.4
 295	 1	 5	 0.418	 9.802021930193792	 14.148	 2.4
 296	 1	 4	 -0.683	 14.703032895290686	 0.0	 -1.4
 297	 1	 5	 0.418	 14.703032895290686	 0.0	 -2.4
 298	 1	 4	 -0.683	 11.027274671468016	 3.537000000000001	 1.4
 299	 1	 5	 0.418	 11.027274671468016	 3.537000000000001	 2.4
 300	 1	 4	 -0.683	 12.25252741274224	 1.4148	 -1.4
 301	 1	 5	 0.418	 12.25252741274224	 1.4148	 -2.4
 302	 1	 4	 -0.683	 9.802021930193792	 16.977600000000002	 -1.4
 303	 1	 5	 0.418	 9.802021930193792	 16.977600000000002	 -2.4
 304	 1	 4	 -0.683	 8.576769188919569	 12.025800000000002	 1.4
 305	 1	 5	 0.418	 8.576769188919569	 12.025800000000002	 2.4
 306	 1	 4	 -0.683	 3.675758223822672	 14.8554	 -1.4
 307	 1	 5	 0.418	 3.675758223822672	 14.8554	 -2.4
 308	 1	 4	 -0.683	 2.450505482548448	 14.148	 1.4
 309	 1	 5	 0.418	 2.450505482548448	 14.148	 2.4
 310	 1	 4	 -0.683	 6.12626370637112	 6.3666	 1.4
 311	 1	 5	 0.418	 6.12626370637112	 6.3666	 2.4
 312	 1	 4	 -0.683	 3.675758223822672	 12.025800000000002	 -1.4
 313	 1	 5	 0.418	 3.675758223822672	 12.025800000000002	 -2.4
 314	 1	 4	 -0.683	 7.351516447645344	 5.6592	 1.4
 315	 1	 5	 0.418	 7.351516447645344	 5.6592	 2.4
 316	 1	 4	 -0.683	 2.450505482548448	 16.977600000000002	 1.4
 317	 1	 5	 0.418	 2.450505482548448	 16.977600000000002	 2.4
 318	 1	 4	 -0.683	 3.675758223822672	 16.270200000000003	 1.4
 319	 1	 5	 0.418	 3.675758223822672	 16.270200000000003	 2.4
 320	 1	 4	 -0.683	 2.450505482548448	 9.9036	 1.4
 321	 1	 5	 0.418	 2.450505482548448	 9.9036	 2.4
 322	 1	 4	 -0.683	 2.450505482548448	 8.488800000000001	 -1.4
 323	 1	 5	 0.418	 2.450505482548448	 8.488800000000001	 -2.4
 324	 1	 4	 -0.683	 4.901010965096896	 5.6592	 -1.4
 325	 1	 5	 0.418	 4.901010965096896	 5.6592	 -2.4
 326	 1	 4	 -0.683	 3.675758223822672	 6.3666	 1.4
 327	 1	 5	 0.418	 3.675758223822672	 6.3666	 2.4
 328	 1	 4	 -0.683	 3.675758223822672	 3.537000000000001	 1.4
 329	 1	 5	 0.418	 3.675758223822672	 3.537000000000001	 2.4
 330	 1	 4	 -0.683	 4.901010965096896	 4.244400000000001	 1.4
 331	 1	 5	 0.418	 4.901010965096896	 4.244400000000001	 2.4
 332	 1	 4	 -0.683	 2.450505482548448	 12.733200000000002	 -1.4
 333	 1	 5	 0.418	 2.450505482548448	 12.733200000000002	 -2.4
 334	 1	 4	 -0.683	 7.351516447645344	 16.977600000000002	 -1.4
 335	 1	 5	 0.418	 7.351516447645344	 16.977600000000002	 -2.4
 336	 1	 4	 -0.683	 1.225252741274224	 6.3666	 1.4
 337	 1	 5	 0.418	 1.225252741274224	 6.3666	 2.4
 338	 1	 4	 -0.683	 11.027274671468016	 16.270200000000003	 -1.4
 339	 1	 5	 0.418	 11.027274671468016	 16.270200000000003	 -2.4
 340	 1	 4	 -0.683	 4.901010965096896	 8.488800000000001	 1.4
 341	 1	 5	 0.418	 4.901010965096896	 8.488800000000001	 2.4
 342	 1	 4	 -0.683	 17.153538377839137	 1.4148	 1.4
 343	 1	 5	 0.418	 17.153538377839137	 1.4148	 2.4
 344	 1	 4	 -0.683	 14.703032895290686	 16.977600000000002	 1.4
 345	 1	 5	 0.418	 14.703032895290686	 16.977600000000002	 2.4
 346	 1	 4	 -0.683	 13.477780154016463	 16.270200000000003	 -1.4
 347	 1	 5	 0.418	 13.477780154016463	 16.270200000000003	 -2.4
 348	 1	 4	 -0.683	 14.703032895290686	 14.148	 1.4
 349	 1	 5	 0.418	 14.703032895290686	 14.148	 2.4
 350	 1	 4	 -0.683	 7.351516447645344	 14.148	 -1.4
 351	 1	 5	 0.418	 7.351516447645344	 14.148	 -2.4
 352	 1	 4	 -0.683	 2.450505482548448	 1.4148	 -1.4
 353	 1	 5	 0.418	 2.450505482548448	 1.4148	 -2.4
 354	 1	 4	 -0.683	 1.225252741274224	 2.1222000000000003	 1.4
 355	 1	 5	 0.418	 1.225252741274224	 2.1222000000000003	 2.4
 356	 1	 4	 -0.683	 3.675758223822672	 2.1222000000000003	 1.4
 357	 1	 5	 0.418	 3.675758223822672	 2.1222000000000003	 2.4
 358	 1	 4	 -0.683	 9.802021930193792	 1.4148	 -1.4
 359	 1	 5	 0.418	 9.802021930193792	 1.4148	 -2.4
 360	 1	 4	 -0.683	 8.576769188919569	 2.1222000000000003	 1.4
 361	 1	 5	 0.418	 8.576769188919569	 2.1222000000000003	 2.4
 362	 1	 4	 -0.683	 1.225252741274224	 12.025800000000002	 1.4
 363	 1	 5	 0.418	 1.225252741274224	 12.025800000000002	 2.4
 364	 1	 4	 -0.683	 7.351516447645344	 1.4148	 -1.4
 365	 1	 5	 0.418	 7.351516447645344	 1.4148	 -2.4
 
 Bonds 
 
1	 1	 1	 2
2	 1	 2	 3
3	 2	 3	 4
4	 2	 4	 5
5	 2	 5	 6
6	 2	 6	 7
7	 2	 7	 8
8	 2	 8	 9
9	 2	 9	 10
10	 3	 10	 11
11	 3	 11	 12
12	 3	 12	 13
13	 4	 13	 14
14	 1	 14	 15
15	 2	 15	 16
16	 2	 16	 17
17	 4	 18	 19
18	 5	 19	 20
19	 5	 20	 21
20	 3	 21	 22
21	 2	 22	 23
22	 3	 23	 24
23	 5	 24	 25
24	 5	 25	 26
25	 3	 26	 27
26	 3	 27	 28
27	 5	 28	 29
28	 3	 29	 30
29	 3	 30	 31
30	 5	 31	 32
31	 3	 32	 33
32	 2	 33	 34
33	 2	 35	 36
34	 2	 36	 37
35	 3	 37	 38
36	 5	 38	 39
37	 3	 39	 40
38	 2	 40	 41
39	 2	 41	 42
40	 2	 42	 43
41	 3	 43	 44
42	 3	 44	 45
43	 3	 45	 46
44	 5	 46	 47
45	 3	 47	 48
46	 3	 48	 49
47	 3	 49	 50
48	 2	 50	 51
49	 3	 52	 53
50	 3	 53	 54
51	 3	 54	 55
52	 5	 55	 56
53	 5	 56	 57
54	 5	 57	 58
55	 5	 58	 59
56	 5	 59	 60
57	 3	 60	 61
58	 3	 61	 62
59	 3	 62	 63
60	 2	 63	 64
61	 2	 64	 65
62	 3	 65	 66
63	 3	 66	 67
64	 2	 67	 68
65	 1	 69	 70
66	 3	 70	 71
67	 3	 71	 72
68	 3	 72	 73
69	 3	 73	 74
70	 3	 74	 75
71	 5	 75	 76
72	 5	 76	 77
73	 3	 77	 78
74	 2	 78	 79
75	 3	 79	 80
76	 3	 80	 81
77	 3	 81	 82
78	 3	 82	 83
79	 2	 83	 84
80	 1	 84	 85
81	 1	 86	 87
82	 3	 87	 88
83	 3	 88	 89
84	 2	 89	 90
85	 2	 90	 91
86	 3	 91	 92
87	 5	 92	 93
88	 5	 93	 94
89	 5	 94	 95
90	 5	 95	 96
91	 3	 96	 97
92	 3	 97	 98
93	 5	 98	 99
94	 5	 99	 100
95	 3	 100	 101
96	 2	 101	 102
97	 4	 103	 104
98	 5	 104	 105
99	 5	 105	 106
100	 5	 106	 107
101	 5	 107	 108
102	 5	 108	 109
103	 5	 109	 110
104	 3	 110	 111
105	 2	 111	 112
106	 3	 112	 113
107	 5	 113	 114
108	 3	 114	 115
109	 2	 115	 116
110	 3	 116	 117
111	 5	 117	 118
112	 4	 118	 119
113	 2	 120	 121
114	 3	 121	 122
115	 5	 122	 123
116	 3	 123	 124
117	 2	 124	 125
118	 3	 125	 126
119	 5	 126	 127
120	 5	 127	 128
121	 3	 128	 129
122	 3	 129	 130
123	 3	 130	 131
124	 3	 131	 132
125	 5	 132	 133
126	 5	 133	 134
127	 3	 134	 135
128	 2	 135	 136
129	 2	 137	 138
130	 3	 138	 139
131	 5	 139	 140
132	 3	 140	 141
133	 2	 141	 142
134	 3	 142	 143
135	 5	 143	 144
136	 5	 144	 145
137	 5	 145	 146
138	 3	 146	 147
139	 3	 147	 148
140	 5	 148	 149
141	 5	 149	 150
142	 3	 150	 151
143	 3	 151	 152
144	 4	 152	 153
145	 1	 154	 155
146	 2	 155	 156
147	 2	 156	 157
148	 2	 157	 158
149	 2	 158	 159
150	 2	 159	 160
151	 1	 160	 161
152	 1	 161	 162
153	 2	 162	 163
154	 2	 163	 164
155	 2	 164	 165
156	 2	 165	 166
157	 2	 166	 167
158	 3	 167	 168
159	 3	 168	 169
160	 2	 169	 170
161	 1	 1	 18
162	 3	 3	 20
163	 2	 5	 22
164	 3	 7	 24
165	 3	 9	 26
166	 5	 11	 28
167	 3	 13	 30
168	 3	 15	 32
169	 2	 17	 34
170	 3	 19	 36
171	 5	 21	 38
172	 2	 23	 40
173	 3	 25	 42
174	 3	 27	 44
175	 5	 29	 46
176	 3	 31	 48
177	 2	 33	 50
178	 2	 35	 52
179	 2	 37	 54
180	 5	 39	 56
181	 3	 41	 58
182	 3	 43	 60
183	 3	 45	 62
184	 3	 47	 64
185	 5	 49	 66
186	 2	 51	 68
187	 3	 53	 70
188	 3	 55	 72
189	 3	 57	 74
190	 5	 59	 76
191	 2	 61	 78
192	 3	 63	 80
193	 3	 65	 82
194	 2	 67	 84
195	 6	 69	 86
196	 5	 71	 88
197	 3	 73	 90
198	 5	 75	 92
199	 5	 77	 94
200	 3	 79	 96
201	 3	 81	 98
202	 3	 83	 100
203	 1	 85	 102
204	 3	 87	 104
205	 3	 89	 106
206	 3	 91	 108
207	 5	 93	 110
208	 3	 95	 112
209	 3	 97	 114
210	 3	 99	 116
211	 3	 101	 118
212	 1	 103	 120
213	 5	 105	 122
214	 3	 107	 124
215	 5	 109	 126
216	 3	 111	 128
217	 5	 113	 130
218	 3	 115	 132
219	 5	 117	 134
220	 1	 119	 136
221	 2	 121	 138
222	 5	 123	 140
223	 2	 125	 142
224	 5	 127	 144
225	 3	 129	 146
226	 3	 131	 148
227	 5	 133	 150
228	 3	 135	 152
229	 1	 137	 154
230	 3	 139	 156
231	 2	 141	 158
232	 3	 143	 160
233	 3	 145	 162
234	 2	 147	 164
235	 3	 149	 166
236	 3	 151	 168
237	 1	 153	 170
238	 7	 2	 171
239	 8	 4	 172
240	 8	 6	 173
241	 8	 8	 174
242	 8	 10	 175
243	 8	 12	 176
244	 7	 14	 177
245	 8	 16	 178
246	 8	 155	 179
247	 8	 157	 180
248	 8	 159	 181
249	 7	 161	 182
250	 8	 163	 183
251	 8	 165	 184
252	 8	 167	 185
253	 8	 169	 186
254	 8	 1	 187
255	 7	 18	 188
256	 8	 17	 189
257	 8	 34	 190
258	 8	 35	 191
259	 8	 52	 192
260	 8	 51	 193
261	 8	 68	 194
262	 7	 69	 195
263	 7	 86	 196
264	 7	 85	 197
265	 8	 102	 198
266	 7	 103	 199
267	 8	 120	 200
268	 7	 119	 201
269	 8	 136	 202
270	 8	 137	 203
271	 7	 154	 204
272	 7	 153	 205
273	 8	 170	 206
274	 9	 171	 207
275	 9	 177	 208
276	 9	 182	 209
277	 9	 188	 210
278	 9	 195	 211
279	 9	 196	 212
280	 9	 197	 213
281	 9	 199	 214
282	 9	 201	 215
283	 9	 204	 216
284	 9	 205	 217
285	 10	 76	 218
286	 11	 218	 219
287	 10	 94	 220
288	 11	 220	 221
289	 10	 96	 222
290	 11	 222	 223
291	 10	 77	 224
292	 11	 224	 225
293	 10	 98	 226
294	 11	 226	 227
295	 10	 114	 228
296	 11	 228	 229
297	 10	 80	 230
298	 11	 230	 231
299	 10	 92	 232
300	 11	 232	 233
301	 10	 62	 234
302	 11	 234	 235
303	 10	 109	 236
304	 11	 236	 237
305	 10	 82	 238
306	 11	 238	 239
307	 10	 100	 240
308	 11	 240	 241
309	 10	 118	 242
310	 11	 242	 243
311	 10	 46	 244
312	 11	 244	 245
313	 10	 113	 246
314	 11	 246	 247
315	 10	 75	 248
316	 11	 248	 249
317	 10	 117	 250
318	 11	 250	 251
319	 10	 130	 252
320	 11	 252	 253
321	 10	 133	 254
322	 11	 254	 255
323	 10	 47	 256
324	 11	 256	 257
325	 10	 108	 258
326	 11	 258	 259
327	 10	 127	 260
328	 11	 260	 261
329	 10	 99	 262
330	 11	 262	 263
331	 10	 49	 264
332	 11	 264	 265
333	 10	 29	 266
334	 11	 266	 267
335	 10	 11	 268
336	 11	 268	 269
337	 10	 95	 270
338	 11	 270	 271
339	 10	 152	 272
340	 11	 272	 273
341	 10	 168	 274
342	 11	 274	 275
343	 10	 134	 276
344	 11	 276	 277
345	 10	 31	 278
346	 11	 278	 279
347	 10	 59	 280
348	 11	 280	 281
349	 10	 93	 282
350	 11	 282	 283
351	 10	 60	 284
352	 11	 284	 285
353	 10	 150	 286
354	 11	 286	 287
355	 10	 66	 288
356	 11	 288	 289
357	 10	 144	 290
358	 11	 290	 291
359	 10	 107	 292
360	 11	 292	 293
361	 10	 128	 294
362	 11	 294	 295
363	 10	 13	 296
364	 11	 296	 297
365	 10	 44	 298
366	 11	 298	 299
367	 10	 28	 300
368	 11	 300	 301
369	 10	 145	 302
370	 11	 302	 303
371	 10	 110	 304
372	 11	 304	 305
373	 10	 123	 306
374	 11	 306	 307
375	 10	 122	 308
376	 11	 308	 309
377	 10	 57	 310
378	 11	 310	 311
379	 10	 106	 312
380	 11	 312	 313
381	 10	 58	 314
382	 11	 314	 315
383	 10	 139	 316
384	 11	 316	 317
385	 10	 140	 318
386	 11	 318	 319
387	 10	 88	 320
388	 11	 320	 321
389	 10	 71	 322
390	 11	 322	 323
391	 10	 56	 324
392	 11	 324	 325
393	 10	 55	 326
394	 11	 326	 327
395	 10	 38	 328
396	 11	 328	 329
397	 10	 39	 330
398	 11	 330	 331
399	 10	 105	 332
400	 11	 332	 333
401	 10	 143	 334
402	 11	 334	 335
403	 10	 53	 336
404	 11	 336	 337
405	 10	 146	 338
406	 11	 338	 339
407	 10	 73	 340
408	 11	 340	 341
409	 10	 32	 342
410	 11	 342	 343
411	 10	 149	 344
412	 11	 344	 345
413	 10	 148	 346
414	 11	 346	 347
415	 10	 132	 348
416	 11	 348	 349
417	 10	 126	 350
418	 11	 350	 351
419	 10	 20	 352
420	 11	 352	 353
421	 10	 19	 354
422	 11	 354	 355
423	 10	 21	 356
424	 11	 356	 357
425	 10	 26	 358
426	 11	 358	 359
427	 10	 25	 360
428	 11	 360	 361