# GO
229 atoms 
296 bonds 
545 angles 
1028 dihedrals 
164 impropers 

354 atom types 
11 bond types 
24 angle types 
53 dihedral types 
10 improper types 

0.0	122.0	 xlo xhi 
0.0	120.0	 ylo yhi 
0.0	3.4827	 zlo zhi 


 Masses 
 
1	12.011
2	1.008
3	12.011
4	15.999
5	1.008
6	15.999
7	15.999
8	12.011
9	15.999
10	15.999
11	12.011
12	12.011
13	15.999
354	40.08
349	22.99

 Pair Coeffs 
 
1	0.07	3.55
2	0.03	2.42
3	0.066	3.5
4	0.17	3.12
5	0.0	0.0
6	0.14	2.9
7	0.17	3.07
8	0.105	3.75
9	0.21	2.96
10	0.17	3.0
11	0.07	3.55
12	0.105	3.75
13	0.21	2.96
354	0.449657	2.412031
349	0.0005	4.07

 Bond Coeffs 
 
1	469.0	1.4
2	469.0	1.4
3	317.0	1.51
4	317.0	1.51
5	268.0	1.529
6	469.0	1.4
7	450.0	1.364
8	367.0	1.08
9	553.0	0.945
10	320.0	1.41
11	553.0	0.945

 Angle Coeffs 
 
1	35.0	120.0
2	63.0	120.0
3	35.0	120.0
4	63.0	120.0
5	70.0	120.0
6	63.0	120.0
7	63.0	120.0
8	70.0	120.0
9	70.0	130.0
10	50.0	109.5
11	40.0	109.5
12	40.0	109.5
13	50.0	109.5
14	70.0	123.0
15	70.0	120.0
16	63.0	114.0
17	58.35	112.7
18	50.0	109.5
19	63.0	114.0
20	70.0	120.0
21	70.0	120.0
22	63.0	120.0
23	35.0	113.0
24	55.0	108.5

 Dihedral Coeffs 
 
1	0.0	7.25	0.0	0.0
2	0.0	7.25	0.0	0.0
3	0.0	7.25	0.0	0.0
4	0.0	7.25	0.0	0.0
5	0.0	7.25	0.0	0.0
6	0.0	7.25	0.0	0.0
7	0.0	7.25	0.0	0.0
8	0.0	7.25	0.0	0.0
9	0.0	7.25	0.0	0.0
10	0.0	7.25	0.0	0.0
11	0.0	7.25	0.0	0.0
12	0.0	7.25	0.0	0.0
13	0.0	7.25	0.0	0.0
14	1.711	-0.5	0.663	0.0
15	0.0	-8.0	0.0	0.0
16	0.0	-8.0	0.0	0.0
17	0.0	0.0	0.0	0.0
18	0.0	0.0	0.0	0.0
19	0.0	0.0	0.0	0.0
20	0.0	-8.0	0.0	0.0
21	0.0	0.0	0.0	0.0
22	0.0	0.0	0.318	0.0
23	0.0	0.0	0.0	0.0
24	0.0	0.0	0.0	0.0
25	-1.552	0.0	0.0	0.0
26	1.711	-0.5	0.663	0.0
27	0.0	0.0	0.366	0.0
28	-4.344	-1.714	0.0	0.0
29	9.508	0.0	0.0	0.0
30	2.817	-0.169	0.543	0.0
31	1.3	-0.05	0.2	0.0
32	1.711	-0.5	0.663	0.0
33	0.0	0.0	0.366	0.0
34	-4.344	-1.714	0.0	0.0
35	0.0	0.0	0.0	0.0
36	0.0	0.0	0.468	0.0
37	0.0	0.0	0.0	0.0
38	0.0	0.0	0.0	0.0
39	0.0	7.25	0.0	0.0
40	0.0	7.25	0.0	0.0
41	0.0	7.25	0.0	0.0
42	0.0	7.25	0.0	0.0
43	0.0	7.25	0.0	0.0
44	0.0	7.25	0.0	0.0
45	0.0	7.25	0.0	0.0
46	0.0	7.25	0.0	0.0
47	0.0	7.25	0.0	0.0
48	0.0	1.682	0.0	0.0
49	0.0	1.682	0.0	0.0
50	0.0	1.682	0.0	0.0
51	-0.356	-0.174	0.492	0.0
52	-0.9	0.0	0.0	0.0
53	-0.9	0.0	0.0	0.0

 Improper Coeffs 
 
1	5.0	180.0
2	5.0	180.0
3	5.0	180.0
4	5.0	180.0
5	5.0	180.0
6	5.0	180.0
7	5.0	180.0
8	5.0	180.0
9	5.0	180.0
10	5.0	180.0

 Atoms 
 
1	 1	 1	 -0.115	 0.0	 0.0	 0.0
 2	 1	 11	 0.15	 1.225252741274224	 -0.7074	 0.0
 3	 1	 1	 0.0	 2.450505482548448	 0.0	 0.0
 4	 1	 1	 -0.115	 3.675758223822672	 -0.7074	 0.0
 5	 1	 1	 0.0	 4.901010965096896	 0.0	 0.0
 6	 1	 11	 0.15	 6.12626370637112	 -0.7074	 0.0
 7	 1	 1	 0.0	 7.351516447645344	 0.0	 0.0
 8	 1	 1	 -0.115	 8.576769188919569	 -0.7074	 0.0
 9	 1	 1	 0.0	 9.802021930193792	 0.0	 0.0
 10	 1	 1	 -0.115	 11.027274671468016	 -0.7074	 0.0
 11	 1	 1	 0.0	 12.25252741274224	 0.0	 0.0
 12	 1	 1	 -0.115	 13.477780154016463	 -0.7074	 0.0
 13	 1	 1	 0.0	 14.703032895290686	 0.0	 0.0
 14	 1	 1	 -0.115	 15.928285636564912	 -0.7074	 0.0
 15	 1	 1	 0.0	 17.153538377839137	 0.0	 0.0
 16	 1	 11	 0.15	 18.378791119113362	 -0.7074	 0.0
 17	 1	 1	 -0.115	 19.604043860387584	 0.0	 0.0
 18	 1	 1	 -0.115	 0.0	 1.4148	 0.0
 19	 1	 1	 0.0	 1.225252741274224	 2.1222000000000003	 0.0
 20	 1	 1	 0.0	 2.450505482548448	 1.4148	 0.0
 21	 1	 1	 0.0	 3.675758223822672	 2.1222000000000003	 0.0
 22	 1	 1	 0.0	 4.901010965096896	 1.4148	 0.0
 23	 1	 1	 0.0	 6.12626370637112	 2.1222000000000003	 0.0
 24	 1	 1	 0.0	 7.351516447645344	 1.4148	 0.0
 25	 1	 1	 0.0	 8.576769188919569	 2.1222000000000003	 0.0
 26	 1	 1	 0.0	 9.802021930193792	 1.4148	 0.0
 27	 1	 1	 0.0	 11.027274671468016	 2.1222000000000003	 0.0
 28	 1	 1	 0.0	 12.25252741274224	 1.4148	 0.0
 29	 1	 1	 0.0	 13.477780154016463	 2.1222000000000003	 0.0
 30	 1	 1	 0.0	 14.703032895290686	 1.4148	 0.0
 31	 1	 1	 0.0	 15.928285636564912	 2.1222000000000003	 0.0
 32	 1	 1	 0.0	 17.153538377839137	 1.4148	 0.0
 33	 1	 1	 0.0	 18.378791119113362	 2.1222000000000003	 0.0
 34	 1	 11	 0.15	 19.604043860387584	 1.4148	 0.0
 35	 1	 1	 -0.115	 0.0	 4.244400000000001	 0.0
 36	 1	 1	 0.0	 1.225252741274224	 3.537000000000001	 0.0
 37	 1	 1	 0.0	 2.450505482548448	 4.244400000000001	 0.0
 38	 1	 1	 0.0	 3.675758223822672	 3.537000000000001	 0.0
 39	 1	 1	 0.0	 4.901010965096896	 4.244400000000001	 0.0
 40	 1	 1	 0.0	 6.12626370637112	 3.537000000000001	 0.0
 41	 1	 1	 0.0	 7.351516447645344	 4.244400000000001	 0.0
 42	 1	 1	 0.0	 8.576769188919569	 3.537000000000001	 0.0
 43	 1	 1	 0.0	 9.802021930193792	 4.244400000000001	 0.0
 44	 1	 1	 0.0	 11.027274671468016	 3.537000000000001	 0.0
 45	 1	 1	 0.0	 12.25252741274224	 4.244400000000001	 0.0
 46	 1	 1	 0.0	 13.477780154016463	 3.537000000000001	 0.0
 47	 1	 1	 0.0	 14.703032895290686	 4.244400000000001	 0.0
 48	 1	 1	 0.0	 15.928285636564912	 3.537000000000001	 0.0
 49	 1	 1	 0.0	 17.153538377839137	 4.244400000000001	 0.0
 50	 1	 1	 0.0	 18.378791119113362	 3.537000000000001	 0.0
 51	 1	 11	 0.15	 19.604043860387584	 4.244400000000001	 0.0
 52	 1	 1	 -0.115	 0.0	 5.6592	 0.0
 53	 1	 1	 0.0	 1.225252741274224	 6.3666	 0.0
 54	 1	 1	 0.0	 2.450505482548448	 5.6592	 0.0
 55	 1	 1	 0.0	 3.675758223822672	 6.3666	 0.0
 56	 1	 1	 0.0	 4.901010965096896	 5.6592	 0.0
 57	 1	 1	 0.0	 6.12626370637112	 6.3666	 0.0
 58	 1	 1	 0.0	 7.351516447645344	 5.6592	 0.0
 59	 1	 1	 0.0	 8.576769188919569	 6.3666	 0.0
 60	 1	 1	 0.0	 9.802021930193792	 5.6592	 0.0
 61	 1	 1	 0.0	 11.027274671468016	 6.3666	 0.0
 62	 1	 1	 0.0	 12.25252741274224	 5.6592	 0.0
 63	 1	 1	 0.0	 13.477780154016463	 6.3666	 0.0
 64	 1	 1	 0.0	 14.703032895290686	 5.6592	 0.0
 65	 1	 1	 0.0	 15.928285636564912	 6.3666	 0.0
 66	 1	 1	 0.0	 17.153538377839137	 5.6592	 0.0
 67	 1	 1	 0.0	 18.378791119113362	 6.3666	 0.0
 68	 1	 1	 -0.115	 19.604043860387584	 5.6592	 0.0
 69	 1	 1	 -0.115	 0.0	 8.488800000000001	 0.0
 70	 1	 1	 0.0	 1.225252741274224	 7.781400000000001	 0.0
 71	 1	 1	 0.0	 2.450505482548448	 8.488800000000001	 0.0
 72	 1	 1	 0.0	 3.675758223822672	 7.781400000000001	 0.0
 73	 1	 1	 0.0	 4.901010965096896	 8.488800000000001	 0.0
 74	 1	 1	 0.0	 6.12626370637112	 7.781400000000001	 0.0
 75	 1	 1	 0.0	 7.351516447645344	 8.488800000000001	 0.0
 76	 1	 1	 0.0	 8.576769188919569	 7.781400000000001	 0.0
 77	 1	 1	 0.0	 9.802021930193792	 8.488800000000001	 0.0
 78	 1	 1	 0.0	 11.027274671468016	 7.781400000000001	 0.0
 79	 1	 1	 0.0	 12.25252741274224	 8.488800000000001	 0.0
 80	 1	 1	 0.0	 13.477780154016463	 7.781400000000001	 0.0
 81	 1	 1	 0.0	 14.703032895290686	 8.488800000000001	 0.0
 82	 1	 1	 0.0	 15.928285636564912	 7.781400000000001	 0.0
 83	 1	 1	 0.0	 17.153538377839137	 8.488800000000001	 0.0
 84	 1	 3	 0.265	 18.378791119113362	 7.781400000000001	 0.0
 85	 1	 11	 0.15	 19.604043860387584	 8.488800000000001	 0.0
 86	 1	 1	 -0.115	 0.0	 9.9036	 0.0
 87	 1	 1	 0.0	 1.225252741274224	 10.611	 0.0
 88	 1	 1	 0.0	 2.450505482548448	 9.9036	 0.0
 89	 1	 1	 0.0	 3.675758223822672	 10.611	 0.0
 90	 1	 1	 0.0	 4.901010965096896	 9.9036	 0.0
 91	 1	 1	 0.0	 6.12626370637112	 10.611	 0.0
 92	 1	 1	 0.0	 7.351516447645344	 9.9036	 0.0
 93	 1	 1	 0.0	 8.576769188919569	 10.611	 0.0
 94	 1	 1	 0.0	 9.802021930193792	 9.9036	 0.0
 95	 1	 1	 0.0	 11.027274671468016	 10.611	 0.0
 96	 1	 1	 0.0	 12.25252741274224	 9.9036	 0.0
 97	 1	 1	 0.0	 13.477780154016463	 10.611	 0.0
 98	 1	 1	 0.0	 14.703032895290686	 9.9036	 0.0
 99	 1	 3	 0.265	 15.928285636564912	 10.611	 0.0
 100	 1	 3	 0.265	 17.153538377839137	 9.9036	 0.0
 101	 1	 1	 0.0	 18.378791119113362	 10.611	 0.0
 102	 1	 1	 -0.115	 19.604043860387584	 9.9036	 0.0
 103	 1	 11	 0.15	 0.0	 12.733200000000002	 0.0
 104	 1	 1	 0.0	 1.225252741274224	 12.025800000000002	 0.0
 105	 1	 1	 0.0	 2.450505482548448	 12.733200000000002	 0.0
 106	 1	 1	 0.0	 3.675758223822672	 12.025800000000002	 0.0
 107	 1	 1	 0.0	 4.901010965096896	 12.733200000000002	 0.0
 108	 1	 1	 0.0	 6.12626370637112	 12.025800000000002	 0.0
 109	 1	 1	 0.0	 7.351516447645344	 12.733200000000002	 0.0
 110	 1	 1	 0.0	 8.576769188919569	 12.025800000000002	 0.0
 111	 1	 1	 0.0	 9.802021930193792	 12.733200000000002	 0.0
 112	 1	 1	 0.0	 11.027274671468016	 12.025800000000002	 0.0
 113	 1	 1	 0.0	 12.25252741274224	 12.733200000000002	 0.0
 114	 1	 1	 0.0	 13.477780154016463	 12.025800000000002	 0.0
 115	 1	 1	 0.0	 14.703032895290686	 12.733200000000002	 0.0
 116	 1	 3	 0.265	 15.928285636564912	 12.025800000000002	 0.0
 117	 1	 3	 0.265	 17.153538377839137	 12.733200000000002	 0.0
 118	 1	 3	 0.265	 18.378791119113362	 12.025800000000002	 0.0
 119	 1	 11	 0.15	 19.604043860387584	 12.733200000000002	 0.0
 120	 1	 1	 -0.115	 0.0	 14.148	 0.0
 121	 1	 1	 0.0	 1.225252741274224	 14.8554	 0.0
 122	 1	 1	 0.0	 2.450505482548448	 14.148	 0.0
 123	 1	 1	 0.0	 3.675758223822672	 14.8554	 0.0
 124	 1	 1	 0.0	 4.901010965096896	 14.148	 0.0
 125	 1	 1	 0.0	 6.12626370637112	 14.8554	 0.0
 126	 1	 1	 0.0	 7.351516447645344	 14.148	 0.0
 127	 1	 1	 0.0	 8.576769188919569	 14.8554	 0.0
 128	 1	 1	 0.0	 9.802021930193792	 14.148	 0.0
 129	 1	 1	 0.0	 11.027274671468016	 14.8554	 0.0
 130	 1	 1	 0.0	 12.25252741274224	 14.148	 0.0
 131	 1	 1	 0.0	 13.477780154016463	 14.8554	 0.0
 132	 1	 1	 0.0	 14.703032895290686	 14.148	 0.0
 133	 1	 1	 0.0	 15.928285636564912	 14.8554	 0.0
 134	 1	 1	 0.0	 17.153538377839137	 14.148	 0.0
 135	 1	 1	 0.0	 18.378791119113362	 14.8554	 0.0
 136	 1	 11	 0.15	 19.604043860387584	 14.148	 0.0
 137	 1	 11	 0.15	 0.0	 16.977600000000002	 0.0
 138	 1	 1	 0.0	 1.225252741274224	 16.270200000000003	 0.0
 139	 1	 1	 0.0	 2.450505482548448	 16.977600000000002	 0.0
 140	 1	 1	 0.0	 3.675758223822672	 16.270200000000003	 0.0
 141	 1	 1	 0.0	 4.901010965096896	 16.977600000000002	 0.0
 142	 1	 1	 0.0	 6.12626370637112	 16.270200000000003	 0.0
 143	 1	 1	 0.0	 7.351516447645344	 16.977600000000002	 0.0
 144	 1	 1	 0.0	 8.576769188919569	 16.270200000000003	 0.0
 145	 1	 1	 0.0	 9.802021930193792	 16.977600000000002	 0.0
 146	 1	 1	 0.0	 11.027274671468016	 16.270200000000003	 0.0
 147	 1	 1	 0.0	 12.25252741274224	 16.977600000000002	 0.0
 148	 1	 1	 0.0	 13.477780154016463	 16.270200000000003	 0.0
 149	 1	 1	 0.0	 14.703032895290686	 16.977600000000002	 0.0
 150	 1	 1	 0.0	 15.928285636564912	 16.270200000000003	 0.0
 151	 1	 1	 0.0	 17.153538377839137	 16.977600000000002	 0.0
 152	 1	 1	 0.0	 18.378791119113362	 16.270200000000003	 0.0
 153	 1	 1	 -0.115	 19.604043860387584	 16.977600000000002	 0.0
 154	 1	 1	 -0.115	 0.0	 18.392400000000002	 0.0
 155	 1	 1	 -0.115	 1.225252741274224	 19.099800000000002	 0.0
 156	 1	 1	 0.0	 2.450505482548448	 18.392400000000002	 0.0
 157	 1	 1	 -0.115	 3.675758223822672	 19.099800000000002	 0.0
 158	 1	 1	 0.0	 4.901010965096896	 18.392400000000002	 0.0
 159	 1	 1	 -0.115	 6.12626370637112	 19.099800000000002	 0.0
 160	 1	 1	 0.0	 7.351516447645344	 18.392400000000002	 0.0
 161	 1	 1	 -0.115	 8.576769188919569	 19.099800000000002	 0.0
 162	 1	 1	 0.0	 9.802021930193792	 18.392400000000002	 0.0
 163	 1	 11	 0.15	 11.027274671468016	 19.099800000000002	 0.0
 164	 1	 1	 0.0	 12.25252741274224	 18.392400000000002	 0.0
 165	 1	 1	 -0.115	 13.477780154016463	 19.099800000000002	 0.0
 166	 1	 1	 0.0	 14.703032895290686	 18.392400000000002	 0.0
 167	 1	 1	 -0.115	 15.928285636564912	 19.099800000000002	 0.0
 168	 1	 1	 0.0	 17.153538377839137	 18.392400000000002	 0.0
 169	 1	 1	 -0.115	 18.378791119113362	 19.099800000000002	 0.0
 170	 1	 1	 -0.115	 19.604043860387584	 18.392400000000002	 0.0
 171	 1	 7	 -0.585	 1.225252741274224	 -2.1074	 0.0
 172	 1	 2	 0.115	 3.675758223822672	 -1.7844	 0.0
 173	 1	 7	 -0.585	 6.12626370637112	 -2.1074	 0.0
 174	 1	 2	 0.115	 8.576769188919569	 -1.7844	 0.0
 175	 1	 2	 0.115	 11.027274671468016	 -1.7844	 0.0
 176	 1	 2	 0.115	 13.477780154016463	 -1.7844	 0.0
 177	 1	 2	 0.115	 15.928285636564912	 -1.7844	 0.0
 178	 1	 7	 -0.585	 18.378791119113362	 -2.1074	 0.0
 179	 1	 2	 0.115	 1.225252741274224	 20.1768	 0.0
 180	 1	 2	 0.115	 3.675758223822672	 20.1768	 0.0
 181	 1	 2	 0.115	 6.12626370637112	 20.1768	 0.0
 182	 1	 2	 0.115	 8.576769188919569	 20.1768	 0.0
 183	 1	 7	 -0.585	 11.027274671468016	 20.4998	 0.0
 184	 1	 2	 0.115	 13.477780154016463	 20.1768	 0.0
 185	 1	 2	 0.115	 15.928285636564912	 20.1768	 0.0
 186	 1	 2	 0.115	 18.378791119113362	 20.1768	 0.0
 187	 1	 2	 0.115	 -0.9327093598758405	 -0.5385	 0.0
 188	 1	 2	 0.115	 -0.9327093598758405	 1.9533	 0.0
 189	 1	 2	 0.115	 20.536753220263424	 -0.5385	 0.0
 190	 1	 7	 -0.585	 20.8164794256858	 2.1148000000000002	 0.0
 191	 1	 2	 0.115	 -0.9327093598758405	 3.7059000000000006	 0.0
 192	 1	 2	 0.115	 -0.9327093598758405	 6.1977	 0.0
 193	 1	 7	 -0.585	 20.8164794256858	 3.5444000000000004	 0.0
 194	 1	 2	 0.115	 20.536753220263424	 6.1977	 0.0
 195	 1	 2	 0.115	 -0.9327093598758405	 7.950300000000001	 0.0
 196	 1	 2	 0.115	 -0.9327093598758405	 10.4421	 0.0
 197	 1	 7	 -0.585	 20.8164794256858	 7.788800000000001	 0.0
 198	 1	 2	 0.115	 20.536753220263424	 10.4421	 0.0
 199	 1	 7	 -0.585	 -1.2124355652982137	 12.0332	 0.0
 200	 1	 2	 0.115	 -0.9327093598758405	 14.686499999999999	 0.0
 201	 1	 7	 -0.585	 20.8164794256858	 12.0332	 0.0
 202	 1	 7	 -0.585	 20.8164794256858	 14.847999999999999	 0.0
 203	 1	 7	 -0.585	 -1.2124355652982146	 16.277600000000003	 0.0
 204	 1	 2	 0.115	 -0.9327093598758405	 18.9309	 0.0
 205	 1	 2	 0.115	 20.536753220263424	 16.439100000000003	 0.0
 206	 1	 2	 0.115	 20.536753220263424	 18.9309	 0.0
 207	 1	 5	 0.435	 1.225252741274224	 -2.8074000000000003	 -0.7
 208	 1	 5	 0.435	 6.12626370637112	 -2.8074000000000003	 -0.7
 209	 1	 5	 0.435	 18.378791119113362	 -2.8074000000000003	 -0.7
 210	 1	 5	 0.435	 11.027274671468016	 21.1998	 -0.7
 211	 1	 5	 0.435	 21.422697208334906	 2.4648000000000003	 0.7
 212	 1	 5	 0.435	 21.422697208334906	 3.1944000000000004	 -0.7
 213	 1	 5	 0.435	 21.422697208334906	 7.438800000000001	 0.7
 214	 1	 5	 0.435	 -1.8186533479473206	 11.683200000000001	 0.7
 215	 1	 5	 0.435	 21.422697208334906	 11.683200000000001	 -0.7
 216	 1	 5	 0.435	 21.422697208334906	 15.197999999999999	 -0.7
 217	 1	 5	 0.435	 -1.818653347947322	 15.927600000000004	 0.7
 218	 1	 4	 -0.683	 17.153538377839137	 9.9036	 -1.4
 219	 1	 5	 0.418	 17.153538377839137	 9.9036	 -2.4
 220	 1	 4	 -0.683	 18.378791119113362	 7.781400000000001	 1.4
 221	 1	 5	 0.418	 18.378791119113362	 7.781400000000001	 2.4
 222	 1	 4	 -0.683	 15.928285636564912	 12.025800000000002	 1.4
 223	 1	 5	 0.418	 15.928285636564912	 12.025800000000002	 2.4
 224	 1	 4	 -0.683	 15.928285636564912	 10.611	 -1.4
 225	 1	 5	 0.418	 15.928285636564912	 10.611	 -2.4
 226	 1	 4	 -0.683	 18.378791119113362	 12.025800000000002	 1.4
 227	 1	 5	 0.418	 18.378791119113362	 12.025800000000002	 2.4
 228	 1	 4	 -0.683	 17.153538377839137	 12.733200000000002	 -1.4
 229	 1	 5	 0.418	 17.153538377839137	 12.733200000000002	 -2.4
 
 Bonds 
 
1	 1	 1	 2
2	 1	 2	 3
3	 2	 3	 4
4	 2	 4	 5
5	 1	 5	 6
6	 1	 6	 7
7	 2	 7	 8
8	 2	 8	 9
9	 2	 9	 10
10	 2	 10	 11
11	 2	 11	 12
12	 2	 12	 13
13	 2	 13	 14
14	 2	 14	 15
15	 1	 15	 16
16	 1	 16	 17
17	 2	 18	 19
18	 2	 19	 20
19	 2	 20	 21
20	 2	 21	 22
21	 2	 22	 23
22	 2	 23	 24
23	 2	 24	 25
24	 2	 25	 26
25	 2	 26	 27
26	 2	 27	 28
27	 2	 28	 29
28	 2	 29	 30
29	 2	 30	 31
30	 2	 31	 32
31	 2	 32	 33
32	 1	 33	 34
33	 2	 35	 36
34	 2	 36	 37
35	 2	 37	 38
36	 2	 38	 39
37	 2	 39	 40
38	 2	 40	 41
39	 2	 41	 42
40	 2	 42	 43
41	 2	 43	 44
42	 2	 44	 45
43	 2	 45	 46
44	 2	 46	 47
45	 2	 47	 48
46	 2	 48	 49
47	 2	 49	 50
48	 1	 50	 51
49	 2	 52	 53
50	 2	 53	 54
51	 2	 54	 55
52	 2	 55	 56
53	 2	 56	 57
54	 2	 57	 58
55	 2	 58	 59
56	 2	 59	 60
57	 2	 60	 61
58	 2	 61	 62
59	 2	 62	 63
60	 2	 63	 64
61	 2	 64	 65
62	 2	 65	 66
63	 2	 66	 67
64	 2	 67	 68
65	 2	 69	 70
66	 2	 70	 71
67	 2	 71	 72
68	 2	 72	 73
69	 2	 73	 74
70	 2	 74	 75
71	 2	 75	 76
72	 2	 76	 77
73	 2	 77	 78
74	 2	 78	 79
75	 2	 79	 80
76	 2	 80	 81
77	 2	 81	 82
78	 2	 82	 83
79	 3	 83	 84
80	 4	 84	 85
81	 2	 86	 87
82	 2	 87	 88
83	 2	 88	 89
84	 2	 89	 90
85	 2	 90	 91
86	 2	 91	 92
87	 2	 92	 93
88	 2	 93	 94
89	 2	 94	 95
90	 2	 95	 96
91	 2	 96	 97
92	 2	 97	 98
93	 3	 98	 99
94	 5	 99	 100
95	 3	 100	 101
96	 2	 101	 102
97	 1	 103	 104
98	 2	 104	 105
99	 2	 105	 106
100	 2	 106	 107
101	 2	 107	 108
102	 2	 108	 109
103	 2	 109	 110
104	 2	 110	 111
105	 2	 111	 112
106	 2	 112	 113
107	 2	 113	 114
108	 2	 114	 115
109	 3	 115	 116
110	 5	 116	 117
111	 5	 117	 118
112	 4	 118	 119
113	 2	 120	 121
114	 2	 121	 122
115	 2	 122	 123
116	 2	 123	 124
117	 2	 124	 125
118	 2	 125	 126
119	 2	 126	 127
120	 2	 127	 128
121	 2	 128	 129
122	 2	 129	 130
123	 2	 130	 131
124	 2	 131	 132
125	 2	 132	 133
126	 2	 133	 134
127	 2	 134	 135
128	 1	 135	 136
129	 1	 137	 138
130	 2	 138	 139
131	 2	 139	 140
132	 2	 140	 141
133	 2	 141	 142
134	 2	 142	 143
135	 2	 143	 144
136	 2	 144	 145
137	 2	 145	 146
138	 2	 146	 147
139	 2	 147	 148
140	 2	 148	 149
141	 2	 149	 150
142	 2	 150	 151
143	 2	 151	 152
144	 2	 152	 153
145	 2	 154	 155
146	 2	 155	 156
147	 2	 156	 157
148	 2	 157	 158
149	 2	 158	 159
150	 2	 159	 160
151	 2	 160	 161
152	 2	 161	 162
153	 1	 162	 163
154	 1	 163	 164
155	 2	 164	 165
156	 2	 165	 166
157	 2	 166	 167
158	 2	 167	 168
159	 2	 168	 169
160	 2	 169	 170
161	 2	 1	 18
162	 2	 3	 20
163	 2	 5	 22
164	 2	 7	 24
165	 2	 9	 26
166	 2	 11	 28
167	 2	 13	 30
168	 2	 15	 32
169	 1	 17	 34
170	 2	 19	 36
171	 2	 21	 38
172	 2	 23	 40
173	 2	 25	 42
174	 2	 27	 44
175	 2	 29	 46
176	 2	 31	 48
177	 2	 33	 50
178	 2	 35	 52
179	 2	 37	 54
180	 2	 39	 56
181	 2	 41	 58
182	 2	 43	 60
183	 2	 45	 62
184	 2	 47	 64
185	 2	 49	 66
186	 1	 51	 68
187	 2	 53	 70
188	 2	 55	 72
189	 2	 57	 74
190	 2	 59	 76
191	 2	 61	 78
192	 2	 63	 80
193	 2	 65	 82
194	 3	 67	 84
195	 2	 69	 86
196	 2	 71	 88
197	 2	 73	 90
198	 2	 75	 92
199	 2	 77	 94
200	 2	 79	 96
201	 2	 81	 98
202	 3	 83	 100
203	 1	 85	 102
204	 2	 87	 104
205	 2	 89	 106
206	 2	 91	 108
207	 2	 93	 110
208	 2	 95	 112
209	 2	 97	 114
210	 5	 99	 116
211	 3	 101	 118
212	 1	 103	 120
213	 2	 105	 122
214	 2	 107	 124
215	 2	 109	 126
216	 2	 111	 128
217	 2	 113	 130
218	 2	 115	 132
219	 3	 117	 134
220	 6	 119	 136
221	 2	 121	 138
222	 2	 123	 140
223	 2	 125	 142
224	 2	 127	 144
225	 2	 129	 146
226	 2	 131	 148
227	 2	 133	 150
228	 2	 135	 152
229	 1	 137	 154
230	 2	 139	 156
231	 2	 141	 158
232	 2	 143	 160
233	 2	 145	 162
234	 2	 147	 164
235	 2	 149	 166
236	 2	 151	 168
237	 2	 153	 170
238	 7	 2	 171
239	 8	 4	 172
240	 7	 6	 173
241	 8	 8	 174
242	 8	 10	 175
243	 8	 12	 176
244	 8	 14	 177
245	 7	 16	 178
246	 8	 155	 179
247	 8	 157	 180
248	 8	 159	 181
249	 8	 161	 182
250	 7	 163	 183
251	 8	 165	 184
252	 8	 167	 185
253	 8	 169	 186
254	 8	 1	 187
255	 8	 18	 188
256	 8	 17	 189
257	 7	 34	 190
258	 8	 35	 191
259	 8	 52	 192
260	 7	 51	 193
261	 8	 68	 194
262	 8	 69	 195
263	 8	 86	 196
264	 7	 85	 197
265	 8	 102	 198
266	 7	 103	 199
267	 8	 120	 200
268	 7	 119	 201
269	 7	 136	 202
270	 7	 137	 203
271	 8	 154	 204
272	 8	 153	 205
273	 8	 170	 206
274	 9	 171	 207
275	 9	 173	 208
276	 9	 178	 209
277	 9	 183	 210
278	 9	 190	 211
279	 9	 193	 212
280	 9	 197	 213
281	 9	 199	 214
282	 9	 201	 215
283	 9	 202	 216
284	 9	 203	 217
285	 10	 100	 218
286	 11	 218	 219
287	 10	 84	 220
288	 11	 220	 221
289	 10	 116	 222
290	 11	 222	 223
291	 10	 99	 224
292	 11	 224	 225
293	 10	 118	 226
294	 11	 226	 227
295	 10	 117	 228
296	 11	 228	 229

 Angles 
 
1	 1	 2	 1	 187
2	 2	 2	 1	 18
3	 3	 187	 1	 18
4	 4	 1	 2	 3
5	 5	 1	 2	 171
6	 5	 3	 2	 171
7	 2	 20	 3	 2
8	 6	 20	 3	 4
9	 2	 2	 3	 4
10	 3	 3	 4	 172
11	 6	 3	 4	 5
12	 3	 172	 4	 5
13	 2	 4	 5	 6
14	 6	 4	 5	 22
15	 2	 6	 5	 22
16	 5	 173	 6	 5
17	 5	 173	 6	 7
18	 4	 5	 6	 7
19	 2	 24	 7	 6
20	 6	 24	 7	 8
21	 2	 6	 7	 8
22	 3	 9	 8	 174
23	 6	 9	 8	 7
24	 3	 174	 8	 7
25	 6	 10	 9	 26
26	 6	 10	 9	 8
27	 6	 26	 9	 8
28	 6	 9	 10	 11
29	 3	 9	 10	 175
30	 3	 11	 10	 175
31	 6	 28	 11	 10
32	 6	 28	 11	 12
33	 6	 10	 11	 12
34	 6	 11	 12	 13
35	 3	 11	 12	 176
36	 3	 13	 12	 176
37	 6	 12	 13	 14
38	 6	 12	 13	 30
39	 6	 14	 13	 30
40	 3	 177	 14	 13
41	 3	 177	 14	 15
42	 6	 13	 14	 15
43	 6	 32	 15	 14
44	 2	 32	 15	 16
45	 2	 14	 15	 16
46	 5	 17	 16	 178
47	 4	 17	 16	 15
48	 5	 178	 16	 15
49	 1	 34	 17	 189
50	 7	 34	 17	 16
51	 1	 189	 17	 16
52	 6	 1	 18	 19
53	 3	 1	 18	 188
54	 3	 19	 18	 188
55	 6	 18	 19	 20
56	 6	 18	 19	 36
57	 6	 20	 19	 36
58	 6	 19	 20	 21
59	 6	 19	 20	 3
60	 6	 21	 20	 3
61	 6	 20	 21	 22
62	 6	 20	 21	 38
63	 6	 22	 21	 38
64	 6	 5	 22	 21
65	 6	 5	 22	 23
66	 6	 21	 22	 23
67	 6	 40	 23	 22
68	 6	 40	 23	 24
69	 6	 22	 23	 24
70	 6	 25	 24	 7
71	 6	 25	 24	 23
72	 6	 7	 24	 23
73	 6	 26	 25	 42
74	 6	 26	 25	 24
75	 6	 42	 25	 24
76	 6	 25	 26	 9
77	 6	 25	 26	 27
78	 6	 9	 26	 27
79	 6	 26	 27	 28
80	 6	 26	 27	 44
81	 6	 28	 27	 44
82	 6	 27	 28	 29
83	 6	 27	 28	 11
84	 6	 29	 28	 11
85	 6	 28	 29	 30
86	 6	 28	 29	 46
87	 6	 30	 29	 46
88	 6	 13	 30	 29
89	 6	 13	 30	 31
90	 6	 29	 30	 31
91	 6	 48	 31	 30
92	 6	 48	 31	 32
93	 6	 30	 31	 32
94	 6	 33	 32	 15
95	 6	 33	 32	 31
96	 6	 15	 32	 31
97	 2	 34	 33	 50
98	 2	 34	 33	 32
99	 6	 50	 33	 32
100	 4	 33	 34	 17
101	 5	 33	 34	 190
102	 5	 17	 34	 190
103	 6	 52	 35	 36
104	 3	 52	 35	 191
105	 3	 36	 35	 191
106	 6	 35	 36	 37
107	 6	 35	 36	 19
108	 6	 37	 36	 19
109	 6	 36	 37	 38
110	 6	 36	 37	 54
111	 6	 38	 37	 54
112	 6	 21	 38	 37
113	 6	 21	 38	 39
114	 6	 37	 38	 39
115	 6	 56	 39	 38
116	 6	 56	 39	 40
117	 6	 38	 39	 40
118	 6	 41	 40	 23
119	 6	 41	 40	 39
120	 6	 23	 40	 39
121	 6	 42	 41	 58
122	 6	 42	 41	 40
123	 6	 58	 41	 40
124	 6	 41	 42	 25
125	 6	 41	 42	 43
126	 6	 25	 42	 43
127	 6	 42	 43	 44
128	 6	 42	 43	 60
129	 6	 44	 43	 60
130	 6	 43	 44	 45
131	 6	 43	 44	 27
132	 6	 45	 44	 27
133	 6	 44	 45	 46
134	 6	 44	 45	 62
135	 6	 46	 45	 62
136	 6	 29	 46	 45
137	 6	 29	 46	 47
138	 6	 45	 46	 47
139	 6	 64	 47	 46
140	 6	 64	 47	 48
141	 6	 46	 47	 48
142	 6	 49	 48	 31
143	 6	 49	 48	 47
144	 6	 31	 48	 47
145	 6	 50	 49	 66
146	 6	 50	 49	 48
147	 6	 66	 49	 48
148	 6	 49	 50	 33
149	 2	 49	 50	 51
150	 2	 33	 50	 51
151	 5	 193	 51	 50
152	 5	 193	 51	 68
153	 4	 50	 51	 68
154	 6	 35	 52	 53
155	 3	 35	 52	 192
156	 3	 53	 52	 192
157	 6	 52	 53	 54
158	 6	 52	 53	 70
159	 6	 54	 53	 70
160	 6	 37	 54	 53
161	 6	 37	 54	 55
162	 6	 53	 54	 55
163	 6	 72	 55	 54
164	 6	 72	 55	 56
165	 6	 54	 55	 56
166	 6	 57	 56	 39
167	 6	 57	 56	 55
168	 6	 39	 56	 55
169	 6	 58	 57	 74
170	 6	 58	 57	 56
171	 6	 74	 57	 56
172	 6	 57	 58	 41
173	 6	 57	 58	 59
174	 6	 41	 58	 59
175	 6	 58	 59	 76
176	 6	 58	 59	 60
177	 6	 76	 59	 60
178	 6	 59	 60	 61
179	 6	 59	 60	 43
180	 6	 61	 60	 43
181	 6	 60	 61	 62
182	 6	 60	 61	 78
183	 6	 62	 61	 78
184	 6	 45	 62	 61
185	 6	 45	 62	 63
186	 6	 61	 62	 63
187	 6	 80	 63	 62
188	 6	 80	 63	 64
189	 6	 62	 63	 64
190	 6	 65	 64	 47
191	 6	 65	 64	 63
192	 6	 47	 64	 63
193	 6	 66	 65	 82
194	 6	 66	 65	 64
195	 6	 82	 65	 64
196	 6	 65	 66	 49
197	 6	 65	 66	 67
198	 6	 49	 66	 67
199	 8	 66	 67	 84
200	 6	 66	 67	 68
201	 8	 84	 67	 68
202	 3	 194	 68	 67
203	 1	 194	 68	 51
204	 2	 67	 68	 51
205	 3	 195	 69	 70
206	 3	 195	 69	 86
207	 6	 70	 69	 86
208	 6	 53	 70	 69
209	 6	 53	 70	 71
210	 6	 69	 70	 71
211	 6	 88	 71	 70
212	 6	 88	 71	 72
213	 6	 70	 71	 72
214	 6	 73	 72	 55
215	 6	 73	 72	 71
216	 6	 55	 72	 71
217	 6	 74	 73	 90
218	 6	 74	 73	 72
219	 6	 90	 73	 72
220	 6	 73	 74	 57
221	 6	 73	 74	 75
222	 6	 57	 74	 75
223	 6	 74	 75	 92
224	 6	 74	 75	 76
225	 6	 92	 75	 76
226	 6	 75	 76	 77
227	 6	 75	 76	 59
228	 6	 77	 76	 59
229	 6	 76	 77	 78
230	 6	 76	 77	 94
231	 6	 78	 77	 94
232	 6	 61	 78	 77
233	 6	 61	 78	 79
234	 6	 77	 78	 79
235	 6	 96	 79	 78
236	 6	 96	 79	 80
237	 6	 78	 79	 80
238	 6	 81	 80	 63
239	 6	 81	 80	 79
240	 6	 63	 80	 79
241	 6	 82	 81	 98
242	 6	 82	 81	 80
243	 6	 98	 81	 80
244	 6	 81	 82	 65
245	 6	 81	 82	 83
246	 6	 65	 82	 83
247	 8	 100	 83	 82
248	 9	 100	 83	 84
249	 8	 82	 83	 84
250	 10	 83	 84	 220
251	 11	 83	 84	 85
252	 12	 83	 84	 67
253	 13	 220	 84	 85
254	 10	 220	 84	 67
255	 11	 85	 84	 67
256	 14	 84	 85	 197
257	 15	 84	 85	 102
258	 5	 197	 85	 102
259	 3	 196	 86	 69
260	 3	 196	 86	 87
261	 6	 69	 86	 87
262	 6	 104	 87	 86
263	 6	 104	 87	 88
264	 6	 86	 87	 88
265	 6	 89	 88	 71
266	 6	 89	 88	 87
267	 6	 71	 88	 87
268	 6	 90	 89	 106
269	 6	 90	 89	 88
270	 6	 106	 89	 88
271	 6	 89	 90	 73
272	 6	 89	 90	 91
273	 6	 73	 90	 91
274	 6	 108	 91	 90
275	 6	 108	 91	 92
276	 6	 90	 91	 92
277	 6	 91	 92	 93
278	 6	 91	 92	 75
279	 6	 93	 92	 75
280	 6	 92	 93	 94
281	 6	 92	 93	 110
282	 6	 94	 93	 110
283	 6	 77	 94	 93
284	 6	 77	 94	 95
285	 6	 93	 94	 95
286	 6	 112	 95	 94
287	 6	 112	 95	 96
288	 6	 94	 95	 96
289	 6	 97	 96	 79
290	 6	 97	 96	 95
291	 6	 79	 96	 95
292	 6	 98	 97	 114
293	 6	 98	 97	 96
294	 6	 114	 97	 96
295	 6	 97	 98	 81
296	 8	 97	 98	 99
297	 8	 81	 98	 99
298	 16	 116	 99	 98
299	 17	 116	 99	 100
300	 18	 116	 99	 224
301	 16	 98	 99	 100
302	 10	 98	 99	 224
303	 18	 100	 99	 224
304	 18	 218	 100	 99
305	 10	 218	 100	 101
306	 10	 218	 100	 83
307	 16	 99	 100	 101
308	 16	 99	 100	 83
309	 12	 101	 100	 83
310	 8	 100	 101	 102
311	 9	 100	 101	 118
312	 8	 102	 101	 118
313	 2	 85	 102	 101
314	 1	 85	 102	 198
315	 3	 101	 102	 198
316	 5	 120	 103	 199
317	 4	 120	 103	 104
318	 5	 199	 103	 104
319	 6	 105	 104	 87
320	 2	 105	 104	 103
321	 2	 87	 104	 103
322	 6	 106	 105	 122
323	 6	 106	 105	 104
324	 6	 122	 105	 104
325	 6	 105	 106	 89
326	 6	 105	 106	 107
327	 6	 89	 106	 107
328	 6	 124	 107	 106
329	 6	 124	 107	 108
330	 6	 106	 107	 108
331	 6	 107	 108	 109
332	 6	 107	 108	 91
333	 6	 109	 108	 91
334	 6	 108	 109	 110
335	 6	 108	 109	 126
336	 6	 110	 109	 126
337	 6	 93	 110	 109
338	 6	 93	 110	 111
339	 6	 109	 110	 111
340	 6	 128	 111	 110
341	 6	 128	 111	 112
342	 6	 110	 111	 112
343	 6	 113	 112	 95
344	 6	 113	 112	 111
345	 6	 95	 112	 111
346	 6	 130	 113	 114
347	 6	 130	 113	 112
348	 6	 114	 113	 112
349	 6	 113	 114	 97
350	 6	 113	 114	 115
351	 6	 97	 114	 115
352	 8	 114	 115	 116
353	 6	 114	 115	 132
354	 8	 116	 115	 132
355	 16	 115	 116	 117
356	 16	 115	 116	 99
357	 10	 115	 116	 222
358	 17	 117	 116	 99
359	 18	 117	 116	 222
360	 18	 99	 116	 222
361	 18	 116	 117	 228
362	 17	 116	 117	 118
363	 16	 116	 117	 134
364	 18	 228	 117	 118
365	 10	 228	 117	 134
366	 16	 118	 117	 134
367	 16	 101	 118	 117
368	 11	 101	 118	 119
369	 10	 101	 118	 226
370	 19	 117	 118	 119
371	 18	 117	 118	 226
372	 13	 119	 118	 226
373	 14	 201	 119	 118
374	 20	 201	 119	 136
375	 21	 118	 119	 136
376	 2	 121	 120	 103
377	 3	 121	 120	 200
378	 1	 103	 120	 200
379	 6	 138	 121	 122
380	 6	 138	 121	 120
381	 6	 122	 121	 120
382	 6	 121	 122	 105
383	 6	 121	 122	 123
384	 6	 105	 122	 123
385	 6	 122	 123	 124
386	 6	 122	 123	 140
387	 6	 124	 123	 140
388	 6	 123	 124	 125
389	 6	 123	 124	 107
390	 6	 125	 124	 107
391	 6	 124	 125	 126
392	 6	 124	 125	 142
393	 6	 126	 125	 142
394	 6	 109	 126	 125
395	 6	 109	 126	 127
396	 6	 125	 126	 127
397	 6	 144	 127	 126
398	 6	 144	 127	 128
399	 6	 126	 127	 128
400	 6	 129	 128	 111
401	 6	 129	 128	 127
402	 6	 111	 128	 127
403	 6	 146	 129	 130
404	 6	 146	 129	 128
405	 6	 130	 129	 128
406	 6	 129	 130	 113
407	 6	 129	 130	 131
408	 6	 113	 130	 131
409	 6	 130	 131	 132
410	 6	 130	 131	 148
411	 6	 132	 131	 148
412	 6	 131	 132	 133
413	 6	 131	 132	 115
414	 6	 133	 132	 115
415	 6	 132	 133	 134
416	 6	 132	 133	 150
417	 6	 134	 133	 150
418	 8	 117	 134	 133
419	 8	 117	 134	 135
420	 6	 133	 134	 135
421	 6	 152	 135	 134
422	 2	 152	 135	 136
423	 2	 134	 135	 136
424	 20	 202	 136	 119
425	 5	 202	 136	 135
426	 22	 119	 136	 135
427	 5	 138	 137	 203
428	 4	 138	 137	 154
429	 5	 203	 137	 154
430	 2	 137	 138	 121
431	 2	 137	 138	 139
432	 6	 121	 138	 139
433	 6	 138	 139	 140
434	 6	 138	 139	 156
435	 6	 140	 139	 156
436	 6	 139	 140	 141
437	 6	 139	 140	 123
438	 6	 141	 140	 123
439	 6	 140	 141	 142
440	 6	 140	 141	 158
441	 6	 142	 141	 158
442	 6	 125	 142	 141
443	 6	 125	 142	 143
444	 6	 141	 142	 143
445	 6	 160	 143	 142
446	 6	 160	 143	 144
447	 6	 142	 143	 144
448	 6	 145	 144	 127
449	 6	 145	 144	 143
450	 6	 127	 144	 143
451	 6	 146	 145	 162
452	 6	 146	 145	 144
453	 6	 162	 145	 144
454	 6	 145	 146	 129
455	 6	 145	 146	 147
456	 6	 129	 146	 147
457	 6	 146	 147	 148
458	 6	 146	 147	 164
459	 6	 148	 147	 164
460	 6	 147	 148	 149
461	 6	 147	 148	 131
462	 6	 149	 148	 131
463	 6	 148	 149	 150
464	 6	 148	 149	 166
465	 6	 150	 149	 166
466	 6	 133	 150	 149
467	 6	 133	 150	 151
468	 6	 149	 150	 151
469	 6	 168	 151	 150
470	 6	 168	 151	 152
471	 6	 150	 151	 152
472	 6	 153	 152	 135
473	 6	 153	 152	 151
474	 6	 135	 152	 151
475	 3	 170	 153	 205
476	 6	 170	 153	 152
477	 3	 205	 153	 152
478	 2	 137	 154	 155
479	 1	 137	 154	 204
480	 3	 155	 154	 204
481	 3	 154	 155	 179
482	 6	 154	 155	 156
483	 3	 179	 155	 156
484	 6	 155	 156	 157
485	 6	 155	 156	 139
486	 6	 157	 156	 139
487	 3	 180	 157	 156
488	 3	 180	 157	 158
489	 6	 156	 157	 158
490	 6	 141	 158	 157
491	 6	 141	 158	 159
492	 6	 157	 158	 159
493	 3	 181	 159	 158
494	 3	 181	 159	 160
495	 6	 158	 159	 160
496	 6	 161	 160	 143
497	 6	 161	 160	 159
498	 6	 143	 160	 159
499	 3	 162	 161	 182
500	 6	 162	 161	 160
501	 3	 182	 161	 160
502	 6	 161	 162	 145
503	 2	 161	 162	 163
504	 2	 145	 162	 163
505	 4	 162	 163	 164
506	 5	 162	 163	 183
507	 5	 164	 163	 183
508	 2	 163	 164	 165
509	 2	 163	 164	 147
510	 6	 165	 164	 147
511	 6	 164	 165	 166
512	 3	 164	 165	 184
513	 3	 166	 165	 184
514	 6	 149	 166	 165
515	 6	 149	 166	 167
516	 6	 165	 166	 167
517	 3	 185	 167	 166
518	 3	 185	 167	 168
519	 6	 166	 167	 168
520	 6	 169	 168	 151
521	 6	 169	 168	 167
522	 6	 151	 168	 167