# GO
84 atoms 
101 bonds 
172 angles 
304 dihedrals 
54 impropers 

354 atom types 
6 bond types 
10 angle types 
19 dihedral types 
6 improper types 

0.0	112.0	 xlo xhi 
0.0	112.0	 ylo yhi 
0.0	3.4827	 zlo zhi 


 Masses 
 
1	12.011
2	1.008
3	12.011
4	15.999
5	1.008
6	15.999
7	15.999
8	12.011
9	15.999
10	15.999
11	12.011
12	12.011
13	15.999
354	40.08
349	22.99

 Pair Coeffs 
 
1	0.07	3.55
2	0.03	2.42
3	0.066	3.5
4	0.17	3.12
5	0.0	0.0
6	0.14	2.9
7	0.17	3.07
8	0.105	3.75
9	0.21	2.96
10	0.17	3.0
11	0.07	3.55
12	0.105	3.75
13	0.21	2.96
354	0.449657	2.412031
349	0.0005	4.07

 Bond Coeffs 
 
1	469.0	1.4
2	469.0	1.4
3	469.0	1.4
4	367.0	1.08
5	450.0	1.364
6	553.0	0.945

 Angle Coeffs 
 
1	70.0	120.0
2	63.0	120.0
3	70.0	120.0
4	63.0	120.0
5	35.0	120.0
6	35.0	120.0
7	63.0	120.0
8	63.0	120.0
9	63.0	120.0
10	35.0	113.0

 Dihedral Coeffs 
 
1	0.0	7.25	0.0	0.0
2	0.0	7.25	0.0	0.0
3	0.0	7.25	0.0	0.0
4	0.0	7.25	0.0	0.0
5	0.0	7.25	0.0	0.0
6	0.0	7.25	0.0	0.0
7	0.0	7.25	0.0	0.0
8	0.0	7.25	0.0	0.0
9	0.0	7.25	0.0	0.0
10	0.0	7.25	0.0	0.0
11	0.0	7.25	0.0	0.0
12	0.0	7.25	0.0	0.0
13	0.0	7.25	0.0	0.0
14	0.0	7.25	0.0	0.0
15	0.0	7.25	0.0	0.0
16	0.0	7.25	0.0	0.0
17	0.0	7.25	0.0	0.0
18	0.0	1.682	0.0	0.0
19	0.0	1.682	0.0	0.0

 Improper Coeffs 
 
1	5.0	180.0
2	5.0	180.0
3	5.0	180.0
4	5.0	180.0
5	5.0	180.0
6	5.0	180.0

 Atoms 
 
1	 1	 11	 0.15	 0.0	 0.0	 0.0
 2	 1	 1	 -0.115	 1.225252741274224	 -0.7074	 0.0
 3	 1	 1	 0.0	 2.450505482548448	 0.0	 0.0
 4	 1	 11	 0.15	 3.675758223822672	 -0.7074	 0.0
 5	 1	 1	 0.0	 4.901010965096896	 0.0	 0.0
 6	 1	 11	 0.15	 6.12626370637112	 -0.7074	 0.0
 7	 1	 1	 0.0	 7.351516447645344	 0.0	 0.0
 8	 1	 1	 -0.115	 8.576769188919569	 -0.7074	 0.0
 9	 1	 11	 0.15	 9.802021930193792	 0.0	 0.0
 10	 1	 11	 0.15	 0.0	 1.4148	 0.0
 11	 1	 1	 0.0	 1.225252741274224	 2.1222000000000003	 0.0
 12	 1	 1	 0.0	 2.450505482548448	 1.4148	 0.0
 13	 1	 1	 0.0	 3.675758223822672	 2.1222000000000003	 0.0
 14	 1	 1	 0.0	 4.901010965096896	 1.4148	 0.0
 15	 1	 1	 0.0	 6.12626370637112	 2.1222000000000003	 0.0
 16	 1	 1	 0.0	 7.351516447645344	 1.4148	 0.0
 17	 1	 1	 0.0	 8.576769188919569	 2.1222000000000003	 0.0
 18	 1	 1	 -0.115	 9.802021930193792	 1.4148	 0.0
 19	 1	 1	 -0.115	 0.0	 4.244400000000001	 0.0
 20	 1	 1	 0.0	 1.225252741274224	 3.537000000000001	 0.0
 21	 1	 1	 0.0	 2.450505482548448	 4.244400000000001	 0.0
 22	 1	 1	 0.0	 3.675758223822672	 3.537000000000001	 0.0
 23	 1	 1	 0.0	 4.901010965096896	 4.244400000000001	 0.0
 24	 1	 1	 0.0	 6.12626370637112	 3.537000000000001	 0.0
 25	 1	 1	 0.0	 7.351516447645344	 4.244400000000001	 0.0
 26	 1	 1	 0.0	 8.576769188919569	 3.537000000000001	 0.0
 27	 1	 1	 -0.115	 9.802021930193792	 4.244400000000001	 0.0
 28	 1	 1	 -0.115	 0.0	 5.6592	 0.0
 29	 1	 1	 0.0	 1.225252741274224	 6.3666	 0.0
 30	 1	 1	 0.0	 2.450505482548448	 5.6592	 0.0
 31	 1	 1	 0.0	 3.675758223822672	 6.3666	 0.0
 32	 1	 1	 0.0	 4.901010965096896	 5.6592	 0.0
 33	 1	 1	 0.0	 6.12626370637112	 6.3666	 0.0
 34	 1	 1	 0.0	 7.351516447645344	 5.6592	 0.0
 35	 1	 1	 0.0	 8.576769188919569	 6.3666	 0.0
 36	 1	 11	 0.15	 9.802021930193792	 5.6592	 0.0
 37	 1	 1	 -0.115	 0.0	 8.488800000000001	 0.0
 38	 1	 1	 0.0	 1.225252741274224	 7.781400000000001	 0.0
 39	 1	 1	 0.0	 2.450505482548448	 8.488800000000001	 0.0
 40	 1	 1	 0.0	 3.675758223822672	 7.781400000000001	 0.0
 41	 1	 1	 0.0	 4.901010965096896	 8.488800000000001	 0.0
 42	 1	 1	 0.0	 6.12626370637112	 7.781400000000001	 0.0
 43	 1	 1	 0.0	 7.351516447645344	 8.488800000000001	 0.0
 44	 1	 1	 0.0	 8.576769188919569	 7.781400000000001	 0.0
 45	 1	 11	 0.15	 9.802021930193792	 8.488800000000001	 0.0
 46	 1	 11	 0.15	 0.0	 9.9036	 0.0
 47	 1	 1	 -0.115	 1.225252741274224	 10.611	 0.0
 48	 1	 1	 0.0	 2.450505482548448	 9.9036	 0.0
 49	 1	 1	 -0.115	 3.675758223822672	 10.611	 0.0
 50	 1	 1	 0.0	 4.901010965096896	 9.9036	 0.0
 51	 1	 11	 0.15	 6.12626370637112	 10.611	 0.0
 52	 1	 1	 0.0	 7.351516447645344	 9.9036	 0.0
 53	 1	 1	 -0.115	 8.576769188919569	 10.611	 0.0
 54	 1	 11	 0.15	 9.802021930193792	 9.9036	 0.0
 55	 1	 2	 0.115	 1.225252741274224	 -1.7844	 0.0
 56	 1	 7	 -0.585	 3.675758223822672	 -2.1074	 0.0
 57	 1	 7	 -0.585	 6.12626370637112	 -2.1074	 0.0
 58	 1	 2	 0.115	 8.576769188919569	 -1.7844	 0.0
 59	 1	 2	 0.115	 1.225252741274224	 11.688	 0.0
 60	 1	 2	 0.115	 3.675758223822672	 11.688	 0.0
 61	 1	 7	 -0.585	 6.12626370637112	 12.011000000000001	 0.0
 62	 1	 2	 0.115	 8.576769188919569	 11.688	 0.0
 63	 1	 7	 -0.585	 -1.2124355652982142	 -0.7	 0.0
 64	 1	 7	 -0.585	 -1.2124355652982142	 2.1148	 0.0
 65	 1	 7	 -0.585	 11.014457495492007	 -0.7000000000000001	 0.0
 66	 1	 2	 0.115	 10.734731290069632	 1.9533	 0.0
 67	 1	 2	 0.115	 -0.9327093598758405	 3.7059000000000006	 0.0
 68	 1	 2	 0.115	 -0.9327093598758405	 6.1977	 0.0
 69	 1	 2	 0.115	 10.734731290069632	 3.7059000000000006	 0.0
 70	 1	 7	 -0.585	 11.014457495492007	 6.3592	 0.0
 71	 1	 2	 0.115	 -0.9327093598758405	 7.950300000000001	 0.0
 72	 1	 7	 -0.585	 -1.2124355652982146	 10.6036	 0.0
 73	 1	 7	 -0.585	 11.014457495492007	 7.788800000000001	 0.0
 74	 1	 7	 -0.585	 11.014457495492007	 10.6036	 0.0
 75	 1	 5	 0.435	 3.675758223822672	 -2.8074000000000003	 0.7
 76	 1	 5	 0.435	 6.12626370637112	 -2.8074000000000003	 0.7
 77	 1	 5	 0.435	 6.12626370637112	 12.711	 -0.7
 78	 1	 5	 0.435	 -1.8186533479473213	 -1.0499999999999998	 -0.7
 79	 1	 5	 0.435	 -1.8186533479473213	 2.4648	 -0.7
 80	 1	 5	 0.435	 11.620675278141114	 -1.05	 0.7
 81	 1	 5	 0.435	 11.620675278141114	 6.7092	 -0.7
 82	 1	 5	 0.435	 -1.818653347947322	 10.9536	 -0.7
 83	 1	 5	 0.435	 11.620675278141114	 7.438800000000001	 -0.7
 84	 1	 5	 0.435	 11.620675278141114	 10.9536	 -0.7
 
 Bonds 
 
1	 1	 1	 2
2	 2	 2	 3
3	 1	 3	 4
4	 1	 4	 5
5	 1	 5	 6
6	 1	 6	 7
7	 2	 7	 8
8	 1	 8	 9
9	 1	 10	 11
10	 2	 11	 12
11	 2	 12	 13
12	 2	 13	 14
13	 2	 14	 15
14	 2	 15	 16
15	 2	 16	 17
16	 2	 17	 18
17	 2	 19	 20
18	 2	 20	 21
19	 2	 21	 22
20	 2	 22	 23
21	 2	 23	 24
22	 2	 24	 25
23	 2	 25	 26
24	 2	 26	 27
25	 2	 28	 29
26	 2	 29	 30
27	 2	 30	 31
28	 2	 31	 32
29	 2	 32	 33
30	 2	 33	 34
31	 2	 34	 35
32	 1	 35	 36
33	 2	 37	 38
34	 2	 38	 39
35	 2	 39	 40
36	 2	 40	 41
37	 2	 41	 42
38	 2	 42	 43
39	 2	 43	 44
40	 1	 44	 45
41	 1	 46	 47
42	 2	 47	 48
43	 2	 48	 49
44	 2	 49	 50
45	 1	 50	 51
46	 1	 51	 52
47	 2	 52	 53
48	 1	 53	 54
49	 3	 1	 10
50	 2	 3	 12
51	 2	 5	 14
52	 2	 7	 16
53	 1	 9	 18
54	 2	 11	 20
55	 2	 13	 22
56	 2	 15	 24
57	 2	 17	 26
58	 2	 19	 28
59	 2	 21	 30
60	 2	 23	 32
61	 2	 25	 34
62	 1	 27	 36
63	 2	 29	 38
64	 2	 31	 40
65	 2	 33	 42
66	 2	 35	 44
67	 1	 37	 46
68	 2	 39	 48
69	 2	 41	 50
70	 2	 43	 52
71	 3	 45	 54
72	 4	 2	 55
73	 5	 4	 56
74	 5	 6	 57
75	 4	 8	 58
76	 4	 47	 59
77	 4	 49	 60
78	 5	 51	 61
79	 4	 53	 62
80	 5	 1	 63
81	 5	 10	 64
82	 5	 9	 65
83	 4	 18	 66
84	 4	 19	 67
85	 4	 28	 68
86	 4	 27	 69
87	 5	 36	 70
88	 4	 37	 71
89	 5	 46	 72
90	 5	 45	 73
91	 5	 54	 74
92	 6	 56	 75
93	 6	 57	 76
94	 6	 61	 77
95	 6	 63	 78
96	 6	 64	 79
97	 6	 65	 80
98	 6	 70	 81
99	 6	 72	 82
100	 6	 73	 83
101	 6	 74	 84

 Angles 
 
1	 1	 2	 1	 63
2	 2	 2	 1	 10
3	 3	 63	 1	 10
4	 4	 1	 2	 3
5	 5	 1	 2	 55
6	 6	 3	 2	 55
7	 7	 12	 3	 2
8	 4	 12	 3	 4
9	 4	 2	 3	 4
10	 8	 3	 4	 5
11	 1	 3	 4	 56
12	 1	 5	 4	 56
13	 9	 4	 5	 6
14	 4	 4	 5	 14
15	 4	 6	 5	 14
16	 1	 57	 6	 5
17	 1	 57	 6	 7
18	 8	 5	 6	 7
19	 4	 16	 7	 6
20	 7	 16	 7	 8
21	 4	 6	 7	 8
22	 5	 9	 8	 58
23	 4	 9	 8	 7
24	 6	 58	 8	 7
25	 1	 65	 9	 18
26	 1	 65	 9	 8
27	 8	 18	 9	 8
28	 2	 1	 10	 11
29	 3	 1	 10	 64
30	 1	 11	 10	 64
31	 4	 20	 11	 10
32	 7	 20	 11	 12
33	 4	 10	 11	 12
34	 7	 11	 12	 13
35	 7	 11	 12	 3
36	 7	 13	 12	 3
37	 7	 12	 13	 14
38	 7	 12	 13	 22
39	 7	 14	 13	 22
40	 7	 5	 14	 13
41	 7	 5	 14	 15
42	 7	 13	 14	 15
43	 7	 24	 15	 14
44	 7	 24	 15	 16
45	 7	 14	 15	 16
46	 7	 17	 16	 7
47	 7	 17	 16	 15
48	 7	 7	 16	 15
49	 7	 18	 17	 26
50	 7	 18	 17	 16
51	 7	 26	 17	 16
52	 4	 17	 18	 9
53	 6	 17	 18	 66
54	 5	 9	 18	 66
55	 6	 28	 19	 67
56	 7	 28	 19	 20
57	 6	 67	 19	 20
58	 7	 19	 20	 21
59	 7	 19	 20	 11
60	 7	 21	 20	 11
61	 7	 20	 21	 22
62	 7	 20	 21	 30
63	 7	 22	 21	 30
64	 7	 13	 22	 21
65	 7	 13	 22	 23
66	 7	 21	 22	 23
67	 7	 32	 23	 22
68	 7	 32	 23	 24
69	 7	 22	 23	 24
70	 7	 25	 24	 15
71	 7	 25	 24	 23
72	 7	 15	 24	 23
73	 7	 26	 25	 34
74	 7	 26	 25	 24
75	 7	 34	 25	 24
76	 7	 25	 26	 17
77	 7	 25	 26	 27
78	 7	 17	 26	 27
79	 4	 26	 27	 36
80	 6	 26	 27	 69
81	 5	 36	 27	 69
82	 6	 19	 28	 68
83	 7	 19	 28	 29
84	 6	 68	 28	 29
85	 7	 28	 29	 30
86	 7	 28	 29	 38
87	 7	 30	 29	 38
88	 7	 21	 30	 29
89	 7	 21	 30	 31
90	 7	 29	 30	 31
91	 7	 40	 31	 30
92	 7	 40	 31	 32
93	 7	 30	 31	 32
94	 7	 33	 32	 23
95	 7	 33	 32	 31
96	 7	 23	 32	 31
97	 7	 34	 33	 42
98	 7	 34	 33	 32
99	 7	 42	 33	 32
100	 7	 33	 34	 25
101	 7	 33	 34	 35
102	 7	 25	 34	 35
103	 4	 34	 35	 36
104	 7	 34	 35	 44
105	 4	 36	 35	 44
106	 8	 35	 36	 27
107	 1	 35	 36	 70
108	 1	 27	 36	 70
109	 6	 38	 37	 71
110	 4	 38	 37	 46
111	 5	 71	 37	 46
112	 7	 29	 38	 37
113	 7	 29	 38	 39
114	 7	 37	 38	 39
115	 7	 48	 39	 38
116	 7	 48	 39	 40
117	 7	 38	 39	 40
118	 7	 41	 40	 31
119	 7	 41	 40	 39
120	 7	 31	 40	 39
121	 7	 42	 41	 50
122	 7	 42	 41	 40
123	 7	 50	 41	 40
124	 7	 41	 42	 33
125	 7	 41	 42	 43
126	 7	 33	 42	 43
127	 7	 42	 43	 44
128	 7	 42	 43	 52
129	 7	 44	 43	 52
130	 4	 43	 44	 45
131	 7	 43	 44	 35
132	 4	 45	 44	 35
133	 1	 73	 45	 44
134	 3	 73	 45	 54
135	 2	 44	 45	 54
136	 8	 37	 46	 47
137	 1	 37	 46	 72
138	 1	 47	 46	 72
139	 5	 59	 47	 46
140	 6	 59	 47	 48
141	 4	 46	 47	 48
142	 7	 49	 48	 39
143	 7	 49	 48	 47
144	 7	 39	 48	 47
145	 6	 50	 49	 60
146	 7	 50	 49	 48
147	 6	 60	 49	 48
148	 7	 49	 50	 41
149	 4	 49	 50	 51
150	 4	 41	 50	 51
151	 8	 50	 51	 52
152	 1	 50	 51	 61
153	 1	 52	 51	 61
154	 4	 51	 52	 53
155	 4	 51	 52	 43
156	 7	 53	 52	 43
157	 4	 52	 53	 54
158	 6	 52	 53	 62
159	 5	 54	 53	 62
160	 2	 45	 54	 53
161	 3	 45	 54	 74
162	 1	 53	 54	 74
163	 10	 75	 56	 4
164	 10	 76	 57	 6
165	 10	 51	 61	 77
166	 10	 1	 63	 78
167	 10	 10	 64	 79
168	 10	 9	 65	 80
169	 10	 81	 70	 36
170	 10	 82	 72	 46
171	 10	 83	 73	 45
172	 10	 84	 74	 54

 Dihedrals 
 
1	1 	63 	1 	2 	3 
2	2 	63 	1 	2 	55 
3	3 	10 	1 	2 	3 
4	4 	10 	1 	2 	55 
5	5 	1 	2 	3 	12 
6	6 	1 	2 	3 	4 
7	7 	55 	2 	3 	12 
8	8 	55 	2 	3 	4 
9	9 	12 	3 	4 	5 
10	1 	12 	3 	4 	56 
11	9 	2 	3 	4 	5 
12	1 	2 	3 	4 	56 
13	10 	3 	4 	5 	6 
14	9 	3 	4 	5 	14 
15	11 	56 	4 	5 	6 
16	1 	56 	4 	5 	14 
17	11 	4 	5 	6 	57 
18	10 	4 	5 	6 	7 
19	1 	14 	5 	6 	57 
20	9 	14 	5 	6 	7 
21	1 	57 	6 	7 	16 
22	1 	57 	6 	7 	8 
23	9 	5 	6 	7 	16 
24	9 	5 	6 	7 	8 
25	5 	16 	7 	8 	9 
26	7 	16 	7 	8 	58 
27	6 	6 	7 	8 	9 
28	8 	6 	7 	8 	58 
29	2 	58 	8 	9 	65 
30	12 	58 	8 	9 	18 
31	1 	7 	8 	9 	65 
32	9 	7 	8 	9 	18 
33	3 	1 	10 	11 	20 
34	3 	1 	10 	11 	12 
35	1 	64 	10 	11 	20 
36	1 	64 	10 	11 	12 
37	13 	20 	11 	12 	13 
38	13 	20 	11 	12 	3 
39	5 	10 	11 	12 	13 
40	5 	10 	11 	12 	3 
41	13 	11 	12 	13 	14 
42	13 	11 	12 	13 	22 
43	13 	3 	12 	13 	14 
44	13 	3 	12 	13 	22 
45	13 	12 	13 	14 	5 
46	13 	12 	13 	14 	15 
47	13 	22 	13 	14 	5 
48	13 	22 	13 	14 	15 
49	13 	5 	14 	15 	24 
50	13 	5 	14 	15 	16 
51	13 	13 	14 	15 	24 
52	13 	13 	14 	15 	16 
53	13 	24 	15 	16 	17 
54	13 	24 	15 	16 	7 
55	13 	14 	15 	16 	17 
56	13 	14 	15 	16 	7 
57	13 	7 	16 	17 	18 
58	13 	7 	16 	17 	26 
59	13 	15 	16 	17 	18 
60	13 	15 	16 	17 	26 
61	5 	26 	17 	18 	9 
62	7 	26 	17 	18 	66 
63	5 	16 	17 	18 	9 
64	7 	16 	17 	18 	66 
65	13 	28 	19 	20 	21 
66	13 	28 	19 	20 	11 
67	7 	67 	19 	20 	21 
68	7 	67 	19 	20 	11 
69	13 	19 	20 	21 	22 
70	13 	19 	20 	21 	30 
71	13 	11 	20 	21 	22 
72	13 	11 	20 	21 	30 
73	13 	20 	21 	22 	13 
74	13 	20 	21 	22 	23 
75	13 	30 	21 	22 	13 
76	13 	30 	21 	22 	23 
77	13 	13 	22 	23 	32 
78	13 	13 	22 	23 	24 
79	13 	21 	22 	23 	32 
80	13 	21 	22 	23 	24 
81	13 	32 	23 	24 	25 
82	13 	32 	23 	24 	15 
83	13 	22 	23 	24 	25 
84	13 	22 	23 	24 	15 
85	13 	15 	24 	25 	26 
86	13 	15 	24 	25 	34 
87	13 	23 	24 	25 	26 
88	13 	23 	24 	25 	34 
89	13 	34 	25 	26 	17 
90	13 	34 	25 	26 	27 
91	13 	24 	25 	26 	17 
92	13 	24 	25 	26 	27 
93	5 	25 	26 	27 	36 
94	7 	25 	26 	27 	69 
95	5 	17 	26 	27 	36 
96	7 	17 	26 	27 	69 
97	13 	19 	28 	29 	30 
98	13 	19 	28 	29 	38 
99	7 	68 	28 	29 	30 
100	7 	68 	28 	29 	38 
101	13 	28 	29 	30 	21 
102	13 	28 	29 	30 	31 
103	13 	38 	29 	30 	21 
104	13 	38 	29 	30 	31 
105	13 	21 	30 	31 	40 
106	13 	21 	30 	31 	32 
107	13 	29 	30 	31 	40 
108	13 	29 	30 	31 	32 
109	13 	40 	31 	32 	33 
110	13 	40 	31 	32 	23 
111	13 	30 	31 	32 	33 
112	13 	30 	31 	32 	23 
113	13 	23 	32 	33 	34 
114	13 	23 	32 	33 	42 
115	13 	31 	32 	33 	34 
116	13 	31 	32 	33 	42 
117	13 	42 	33 	34 	25 
118	13 	42 	33 	34 	35 
119	13 	32 	33 	34 	25 
120	13 	32 	33 	34 	35 
121	5 	33 	34 	35 	36 
122	13 	33 	34 	35 	44 
123	5 	25 	34 	35 	36 
124	13 	25 	34 	35 	44 
125	9 	34 	35 	36 	27 
126	1 	34 	35 	36 	70 
127	9 	44 	35 	36 	27 
128	1 	44 	35 	36 	70 
129	7 	71 	37 	38 	29 
130	7 	71 	37 	38 	39 
131	5 	46 	37 	38 	29 
132	5 	46 	37 	38 	39 
133	13 	29 	38 	39 	48 
134	13 	29 	38 	39 	40 
135	13 	37 	38 	39 	48 
136	13 	37 	38 	39 	40 
137	13 	48 	39 	40 	41 
138	13 	48 	39 	40 	31 
139	13 	38 	39 	40 	41 
140	13 	38 	39 	40 	31 
141	13 	31 	40 	41 	42 
142	13 	31 	40 	41 	50 
143	13 	39 	40 	41 	42 
144	13 	39 	40 	41 	50 
145	13 	50 	41 	42 	33 
146	13 	50 	41 	42 	43 
147	13 	40 	41 	42 	33 
148	13 	40 	41 	42 	43 
149	13 	41 	42 	43 	44 
150	13 	41 	42 	43 	52 
151	13 	33 	42 	43 	44 
152	13 	33 	42 	43 	52 
153	5 	42 	43 	44 	45 
154	13 	42 	43 	44 	35 
155	5 	52 	43 	44 	45 
156	13 	52 	43 	44 	35 
157	1 	43 	44 	45 	73 
158	3 	43 	44 	45 	54 
159	1 	35 	44 	45 	73 
160	3 	35 	44 	45 	54 
161	12 	37 	46 	47 	59 
162	9 	37 	46 	47 	48 
163	2 	72 	46 	47 	59 
164	1 	72 	46 	47 	48 
165	7 	59 	47 	48 	49 
166	7 	59 	47 	48 	39 
167	5 	46 	47 	48 	49 
168	5 	46 	47 	48 	39 
169	13 	39 	48 	49 	50 
170	7 	39 	48 	49 	60 
171	13 	47 	48 	49 	50 
172	7 	47 	48 	49 	60 
173	7 	60 	49 	50 	41 
174	8 	60 	49 	50 	51 
175	13 	48 	49 	50 	41 
176	5 	48 	49 	50 	51 
177	9 	49 	50 	51 	52 
178	1 	49 	50 	51 	61 
179	9 	41 	50 	51 	52 
180	1 	41 	50 	51 	61 
181	9 	50 	51 	52 	53 
182	9 	50 	51 	52 	43 
183	1 	61 	51 	52 	53 
184	1 	61 	51 	52 	43 
185	6 	51 	52 	53 	54 
186	8 	51 	52 	53 	62 
187	5 	43 	52 	53 	54 
188	7 	43 	52 	53 	62 
189	3 	52 	53 	54 	45 
190	1 	52 	53 	54 	74 
191	4 	62 	53 	54 	45 
192	2 	62 	53 	54 	74 
193	14 	2 	1 	10 	11 
194	15 	2 	1 	10 	64 
195	15 	63 	1 	10 	11 
196	16 	63 	1 	10 	64 
197	13 	2 	3 	12 	11 
198	13 	2 	3 	12 	13 
199	5 	4 	3 	12 	11 
200	5 	4 	3 	12 	13 
201	5 	4 	5 	14 	13 
202	5 	4 	5 	14 	15 
203	5 	6 	5 	14 	13 
204	5 	6 	5 	14 	15 
205	5 	6 	7 	16 	17 
206	5 	6 	7 	16 	15 
207	13 	8 	7 	16 	17 
208	13 	8 	7 	16 	15 
209	1 	65 	9 	18 	17 
210	2 	65 	9 	18 	66 
211	9 	8 	9 	18 	17 
212	12 	8 	9 	18 	66 
213	5 	10 	11 	20 	19 
214	5 	10 	11 	20 	21 
215	13 	12 	11 	20 	19 
216	13 	12 	11 	20 	21 
217	13 	12 	13 	22 	21 
218	13 	12 	13 	22 	23 
219	13 	14 	13 	22 	21 
220	13 	14 	13 	22 	23 
221	13 	14 	15 	24 	25 
222	13 	14 	15 	24 	23 
223	13 	16 	15 	24 	25 
224	13 	16 	15 	24 	23 
225	13 	18 	17 	26 	25 
226	13 	18 	17 	26 	27 
227	13 	16 	17 	26 	25 
228	13 	16 	17 	26 	27 
229	17 	67 	19 	28 	68 
230	7 	67 	19 	28 	29 
231	7 	20 	19 	28 	68 
232	13 	20 	19 	28 	29 
233	13 	20 	21 	30 	29 
234	13 	20 	21 	30 	31 
235	13 	22 	21 	30 	29 
236	13 	22 	21 	30 	31 
237	13 	22 	23 	32 	33 
238	13 	22 	23 	32 	31 
239	13 	24 	23 	32 	33 
240	13 	24 	23 	32 	31 
241	13 	26 	25 	34 	33 
242	13 	26 	25 	34 	35 
243	13 	24 	25 	34 	33 
244	13 	24 	25 	34 	35 
245	9 	26 	27 	36 	35 
246	1 	26 	27 	36 	70 
247	12 	69 	27 	36 	35 
248	2 	69 	27 	36 	70 
249	13 	28 	29 	38 	37 
250	13 	28 	29 	38 	39 
251	13 	30 	29 	38 	37 
252	13 	30 	29 	38 	39 
253	13 	30 	31 	40 	41 
254	13 	30 	31 	40 	39 
255	13 	32 	31 	40 	41 
256	13 	32 	31 	40 	39 
257	13 	34 	33 	42 	41 
258	13 	34 	33 	42 	43 
259	13 	32 	33 	42 	41 
260	13 	32 	33 	42 	43 
261	13 	34 	35 	44 	43 
262	5 	34 	35 	44 	45 
263	5 	36 	35 	44 	43 
264	6 	36 	35 	44 	45 
265	9 	38 	37 	46 	47 
266	1 	38 	37 	46 	72 
267	12 	71 	37 	46 	47 
268	2 	71 	37 	46 	72 
269	13 	38 	39 	48 	49 
270	13 	38 	39 	48 	47 
271	13 	40 	39 	48 	49 
272	13 	40 	39 	48 	47 
273	13 	42 	41 	50 	49 
274	5 	42 	41 	50 	51 
275	13 	40 	41 	50 	49 
276	5 	40 	41 	50 	51 
277	5 	42 	43 	52 	51 
278	13 	42 	43 	52 	53 
279	5 	44 	43 	52 	51 
280	13 	44 	43 	52 	53 
281	15 	73 	45 	54 	53 
282	16 	73 	45 	54 	74 
283	14 	44 	45 	54 	53 
284	15 	44 	45 	54 	74 
285	18 	3 	4 	56 	75 
286	18 	5 	4 	56 	75 
287	18 	5 	6 	57 	76 
288	18 	7 	6 	57 	76 
289	18 	50 	51 	61 	77 
290	18 	52 	51 	61 	77 
291	18 	2 	1 	63 	78 
292	19 	10 	1 	63 	78 
293	19 	1 	10 	64 	79 
294	18 	11 	10 	64 	79 
295	18 	18 	9 	65 	80 
296	18 	8 	9 	65 	80 
297	18 	35 	36 	70 	81 
298	18 	27 	36 	70 	81 
299	18 	37 	46 	72 	82 
300	18 	47 	46 	72 	82 
301	18 	44 	45 	73 	83 
302	19 	54 	45 	73 	83 
303	19 	45 	54 	74 	84 
304	18 	53 	54 	74 	84 

 Impropers 
 
1	1	1 	2 	63 	10 
2	2	2 	1 	3 	55 
3	3	3 	12 	2 	4 
4	4	4 	3 	5 	56 
5	3	5 	4 	6 	14 
6	4	6 	57 	5 	7 
7	3	7 	16 	6 	8 
8	2	8 	9 	58 	7 
9	4	9 	65 	18 	8 
10	1	10 	1 	11 	64 
11	3	11 	20 	10 	12 
12	5	12 	11 	13 	3 
13	5	13 	12 	14 	22 
14	5	14 	5 	13 	15 
15	5	15 	24 	14 	16 
16	5	16 	17 	7 	15 
17	5	17 	18 	26 	16 
18	2	18 	17 	9 	66 
19	6	19 	28 	67 	20 
20	5	20 	19 	21 	11 
21	5	21 	20 	22 	30 
22	5	22 	13 	21 	23 
23	5	23 	32 	22 	24 
24	5	24 	25 	15 	23 
25	5	25 	26 	34 	24 
26	5	26 	25 	17 	27 
27	2	27 	26 	36 	69 
28	6	28 	19 	68 	29 
29	5	29 	28 	30 	38 
30	5	30 	21 	29 	31 
31	5	31 	40 	30 	32 
32	5	32 	33 	23 	31 
33	5	33 	34 	42 	32 
34	5	34 	33 	25 	35 
35	3	35 	34 	36 	44 
36	4	36 	35 	27 	70 
37	2	37 	38 	71 	46 
38	5	38 	29 	37 	39 
39	5	39 	48 	38 	40 
40	5	40 	41 	31 	39 
41	5	41 	42 	50 	40 
42	5	42 	41 	33 	43 
43	5	43 	42 	44 	52 
44	3	44 	43 	45 	35 
45	1	45 	73 	44 	54 
46	4	46 	37 	47 	72 
47	2	47 	59 	46 	48 
48	5	48 	49 	39 	47 
49	6	49 	50 	60 	48 
50	3	50 	49 	41 	51 
51	4	51 	50 	52 	61 
52	3	52 	51 	53 	43 
53	2	53 	52 	54 	62 
54	1	54 	45 	53 	74 
