# GO
309 atoms 
413 bonds 
769 angles 
1450 dihedrals 
252 impropers 

354 atom types 
6 bond types 
10 angle types 
18 dihedral types 
6 improper types 

0.0	128.0	 xlo xhi 
0.0	128.0	 ylo yhi 
0.0	3.4827	 zlo zhi 


 Masses 
 
1	12.011
2	1.008
3	12.011
4	15.999
5	1.008
6	15.999
7	15.999
8	12.011
9	15.999
10	15.999
11	12.011
12	12.011
13	15.999
354	40.08
349	22.99

 Pair Coeffs 
 
1	0.07	3.55
2	0.03	2.42
3	0.066	3.5
4	0.17	3.12
5	0.0	0.0
6	0.14	2.9
7	0.17	3.07
8	0.105	3.75
9	0.21	2.96
10	0.17	3.0
11	0.07	3.55
12	0.105	3.75
13	0.21	2.96
354	0.449657	2.412031
349	0.0005	4.07

 Bond Coeffs 
 
1	469.0	1.4
2	469.0	1.4
3	469.0	1.4
4	450.0	1.364
5	367.0	1.08
6	553.0	0.945

 Angle Coeffs 
 
1	70.0	120.0
2	70.0	120.0
3	63.0	120.0
4	63.0	120.0
5	63.0	120.0
6	35.0	120.0
7	63.0	120.0
8	35.0	120.0
9	63.0	120.0
10	35.0	113.0

 Dihedral Coeffs 
 
1	0.0	7.25	0.0	0.0
2	0.0	7.25	0.0	0.0
3	0.0	7.25	0.0	0.0
4	0.0	7.25	0.0	0.0
5	0.0	7.25	0.0	0.0
6	0.0	7.25	0.0	0.0
7	0.0	7.25	0.0	0.0
8	0.0	7.25	0.0	0.0
9	0.0	7.25	0.0	0.0
10	0.0	7.25	0.0	0.0
11	0.0	7.25	0.0	0.0
12	0.0	7.25	0.0	0.0
13	0.0	7.25	0.0	0.0
14	0.0	7.25	0.0	0.0
15	0.0	7.25	0.0	0.0
16	0.0	7.25	0.0	0.0
17	0.0	1.682	0.0	0.0
18	0.0	1.682	0.0	0.0

 Improper Coeffs 
 
1	5.0	180.0
2	5.0	180.0
3	5.0	180.0
4	5.0	180.0
5	5.0	180.0
6	5.0	180.0

 Atoms 
 
1	 1	 11	 0.15	 0.0	 0.0	 0.0
 2	 1	 11	 0.15	 1.225252741274224	 -0.7074	 0.0
 3	 1	 1	 0.0	 2.450505482548448	 0.0	 0.0
 4	 1	 1	 -0.115	 3.675758223822672	 -0.7074	 0.0
 5	 1	 1	 0.0	 4.901010965096896	 0.0	 0.0
 6	 1	 11	 0.15	 6.12626370637112	 -0.7074	 0.0
 7	 1	 1	 0.0	 7.351516447645344	 0.0	 0.0
 8	 1	 1	 -0.115	 8.576769188919569	 -0.7074	 0.0
 9	 1	 1	 0.0	 9.802021930193792	 0.0	 0.0
 10	 1	 1	 -0.115	 11.027274671468016	 -0.7074	 0.0
 11	 1	 1	 0.0	 12.25252741274224	 0.0	 0.0
 12	 1	 1	 -0.115	 13.477780154016463	 -0.7074	 0.0
 13	 1	 1	 0.0	 14.703032895290686	 0.0	 0.0
 14	 1	 1	 -0.115	 15.928285636564912	 -0.7074	 0.0
 15	 1	 1	 0.0	 17.153538377839137	 0.0	 0.0
 16	 1	 11	 0.15	 18.378791119113362	 -0.7074	 0.0
 17	 1	 1	 0.0	 19.604043860387584	 0.0	 0.0
 18	 1	 1	 -0.115	 20.82929660166181	 -0.7074	 0.0
 19	 1	 1	 0.0	 22.05454934293603	 0.0	 0.0
 20	 1	 1	 -0.115	 23.279802084210257	 -0.7074	 0.0
 21	 1	 1	 -0.115	 24.50505482548448	 0.0	 0.0
 22	 1	 1	 -0.115	 0.0	 1.4148	 0.0
 23	 1	 1	 0.0	 1.225252741274224	 2.1222000000000003	 0.0
 24	 1	 1	 0.0	 2.450505482548448	 1.4148	 0.0
 25	 1	 1	 0.0	 3.675758223822672	 2.1222000000000003	 0.0
 26	 1	 1	 0.0	 4.901010965096896	 1.4148	 0.0
 27	 1	 1	 0.0	 6.12626370637112	 2.1222000000000003	 0.0
 28	 1	 1	 0.0	 7.351516447645344	 1.4148	 0.0
 29	 1	 1	 0.0	 8.576769188919569	 2.1222000000000003	 0.0
 30	 1	 1	 0.0	 9.802021930193792	 1.4148	 0.0
 31	 1	 1	 0.0	 11.027274671468016	 2.1222000000000003	 0.0
 32	 1	 1	 0.0	 12.25252741274224	 1.4148	 0.0
 33	 1	 1	 0.0	 13.477780154016463	 2.1222000000000003	 0.0
 34	 1	 1	 0.0	 14.703032895290686	 1.4148	 0.0
 35	 1	 1	 0.0	 15.928285636564912	 2.1222000000000003	 0.0
 36	 1	 1	 0.0	 17.153538377839137	 1.4148	 0.0
 37	 1	 1	 0.0	 18.378791119113362	 2.1222000000000003	 0.0
 38	 1	 1	 0.0	 19.604043860387584	 1.4148	 0.0
 39	 1	 1	 0.0	 20.82929660166181	 2.1222000000000003	 0.0
 40	 1	 1	 0.0	 22.05454934293603	 1.4148	 0.0
 41	 1	 1	 0.0	 23.279802084210257	 2.1222000000000003	 0.0
 42	 1	 1	 -0.115	 24.50505482548448	 1.4148	 0.0
 43	 1	 1	 -0.115	 0.0	 4.244400000000001	 0.0
 44	 1	 1	 0.0	 1.225252741274224	 3.537000000000001	 0.0
 45	 1	 1	 0.0	 2.450505482548448	 4.244400000000001	 0.0
 46	 1	 1	 0.0	 3.675758223822672	 3.537000000000001	 0.0
 47	 1	 1	 0.0	 4.901010965096896	 4.244400000000001	 0.0
 48	 1	 1	 0.0	 6.12626370637112	 3.537000000000001	 0.0
 49	 1	 1	 0.0	 7.351516447645344	 4.244400000000001	 0.0
 50	 1	 1	 0.0	 8.576769188919569	 3.537000000000001	 0.0
 51	 1	 1	 0.0	 9.802021930193792	 4.244400000000001	 0.0
 52	 1	 1	 0.0	 11.027274671468016	 3.537000000000001	 0.0
 53	 1	 1	 0.0	 12.25252741274224	 4.244400000000001	 0.0
 54	 1	 1	 0.0	 13.477780154016463	 3.537000000000001	 0.0
 55	 1	 1	 0.0	 14.703032895290686	 4.244400000000001	 0.0
 56	 1	 1	 0.0	 15.928285636564912	 3.537000000000001	 0.0
 57	 1	 1	 0.0	 17.153538377839137	 4.244400000000001	 0.0
 58	 1	 1	 0.0	 18.378791119113362	 3.537000000000001	 0.0
 59	 1	 1	 0.0	 19.604043860387584	 4.244400000000001	 0.0
 60	 1	 1	 0.0	 20.82929660166181	 3.537000000000001	 0.0
 61	 1	 1	 0.0	 22.05454934293603	 4.244400000000001	 0.0
 62	 1	 1	 0.0	 23.279802084210257	 3.537000000000001	 0.0
 63	 1	 11	 0.15	 24.50505482548448	 4.244400000000001	 0.0
 64	 1	 1	 -0.115	 0.0	 5.6592	 0.0
 65	 1	 1	 0.0	 1.225252741274224	 6.3666	 0.0
 66	 1	 1	 0.0	 2.450505482548448	 5.6592	 0.0
 67	 1	 1	 0.0	 3.675758223822672	 6.3666	 0.0
 68	 1	 1	 0.0	 4.901010965096896	 5.6592	 0.0
 69	 1	 1	 0.0	 6.12626370637112	 6.3666	 0.0
 70	 1	 1	 0.0	 7.351516447645344	 5.6592	 0.0
 71	 1	 1	 0.0	 8.576769188919569	 6.3666	 0.0
 72	 1	 1	 0.0	 9.802021930193792	 5.6592	 0.0
 73	 1	 1	 0.0	 11.027274671468016	 6.3666	 0.0
 74	 1	 1	 0.0	 12.25252741274224	 5.6592	 0.0
 75	 1	 1	 0.0	 13.477780154016463	 6.3666	 0.0
 76	 1	 1	 0.0	 14.703032895290686	 5.6592	 0.0
 77	 1	 1	 0.0	 15.928285636564912	 6.3666	 0.0
 78	 1	 1	 0.0	 17.153538377839137	 5.6592	 0.0
 79	 1	 1	 0.0	 18.378791119113362	 6.3666	 0.0
 80	 1	 1	 0.0	 19.604043860387584	 5.6592	 0.0
 81	 1	 1	 0.0	 20.82929660166181	 6.3666	 0.0
 82	 1	 1	 0.0	 22.05454934293603	 5.6592	 0.0
 83	 1	 1	 0.0	 23.279802084210257	 6.3666	 0.0
 84	 1	 1	 -0.115	 24.50505482548448	 5.6592	 0.0
 85	 1	 1	 -0.115	 0.0	 8.488800000000001	 0.0
 86	 1	 1	 0.0	 1.225252741274224	 7.781400000000001	 0.0
 87	 1	 1	 0.0	 2.450505482548448	 8.488800000000001	 0.0
 88	 1	 1	 0.0	 3.675758223822672	 7.781400000000001	 0.0
 89	 1	 1	 0.0	 4.901010965096896	 8.488800000000001	 0.0
 90	 1	 1	 0.0	 6.12626370637112	 7.781400000000001	 0.0
 91	 1	 1	 0.0	 7.351516447645344	 8.488800000000001	 0.0
 92	 1	 1	 0.0	 8.576769188919569	 7.781400000000001	 0.0
 93	 1	 1	 0.0	 9.802021930193792	 8.488800000000001	 0.0
 94	 1	 1	 0.0	 11.027274671468016	 7.781400000000001	 0.0
 95	 1	 1	 0.0	 12.25252741274224	 8.488800000000001	 0.0
 96	 1	 1	 0.0	 13.477780154016463	 7.781400000000001	 0.0
 97	 1	 1	 0.0	 14.703032895290686	 8.488800000000001	 0.0
 98	 1	 1	 0.0	 15.928285636564912	 7.781400000000001	 0.0
 99	 1	 1	 0.0	 17.153538377839137	 8.488800000000001	 0.0
 100	 1	 1	 0.0	 18.378791119113362	 7.781400000000001	 0.0
 101	 1	 1	 0.0	 19.604043860387584	 8.488800000000001	 0.0
 102	 1	 1	 0.0	 20.82929660166181	 7.781400000000001	 0.0
 103	 1	 1	 0.0	 22.05454934293603	 8.488800000000001	 0.0
 104	 1	 1	 0.0	 23.279802084210257	 7.781400000000001	 0.0
 105	 1	 1	 -0.115	 24.50505482548448	 8.488800000000001	 0.0
 106	 1	 11	 0.15	 0.0	 9.9036	 0.0
 107	 1	 1	 0.0	 1.225252741274224	 10.611	 0.0
 108	 1	 1	 0.0	 2.450505482548448	 9.9036	 0.0
 109	 1	 1	 0.0	 3.675758223822672	 10.611	 0.0
 110	 1	 1	 0.0	 4.901010965096896	 9.9036	 0.0
 111	 1	 1	 0.0	 6.12626370637112	 10.611	 0.0
 112	 1	 1	 0.0	 7.351516447645344	 9.9036	 0.0
 113	 1	 1	 0.0	 8.576769188919569	 10.611	 0.0
 114	 1	 1	 0.0	 9.802021930193792	 9.9036	 0.0
 115	 1	 1	 0.0	 11.027274671468016	 10.611	 0.0
 116	 1	 1	 0.0	 12.25252741274224	 9.9036	 0.0
 117	 1	 1	 0.0	 13.477780154016463	 10.611	 0.0
 118	 1	 1	 0.0	 14.703032895290686	 9.9036	 0.0
 119	 1	 1	 0.0	 15.928285636564912	 10.611	 0.0
 120	 1	 1	 0.0	 17.153538377839137	 9.9036	 0.0
 121	 1	 1	 0.0	 18.378791119113362	 10.611	 0.0
 122	 1	 1	 0.0	 19.604043860387584	 9.9036	 0.0
 123	 1	 1	 0.0	 20.82929660166181	 10.611	 0.0
 124	 1	 1	 0.0	 22.05454934293603	 9.9036	 0.0
 125	 1	 1	 0.0	 23.279802084210257	 10.611	 0.0
 126	 1	 1	 -0.115	 24.50505482548448	 9.9036	 0.0
 127	 1	 1	 -0.115	 0.0	 12.733200000000002	 0.0
 128	 1	 1	 0.0	 1.225252741274224	 12.025800000000002	 0.0
 129	 1	 1	 0.0	 2.450505482548448	 12.733200000000002	 0.0
 130	 1	 1	 0.0	 3.675758223822672	 12.025800000000002	 0.0
 131	 1	 1	 0.0	 4.901010965096896	 12.733200000000002	 0.0
 132	 1	 1	 0.0	 6.12626370637112	 12.025800000000002	 0.0
 133	 1	 1	 0.0	 7.351516447645344	 12.733200000000002	 0.0
 134	 1	 1	 0.0	 8.576769188919569	 12.025800000000002	 0.0
 135	 1	 1	 0.0	 9.802021930193792	 12.733200000000002	 0.0
 136	 1	 1	 0.0	 11.027274671468016	 12.025800000000002	 0.0
 137	 1	 1	 0.0	 12.25252741274224	 12.733200000000002	 0.0
 138	 1	 1	 0.0	 13.477780154016463	 12.025800000000002	 0.0
 139	 1	 1	 0.0	 14.703032895290686	 12.733200000000002	 0.0
 140	 1	 1	 0.0	 15.928285636564912	 12.025800000000002	 0.0
 141	 1	 1	 0.0	 17.153538377839137	 12.733200000000002	 0.0
 142	 1	 1	 0.0	 18.378791119113362	 12.025800000000002	 0.0
 143	 1	 1	 0.0	 19.604043860387584	 12.733200000000002	 0.0
 144	 1	 1	 0.0	 20.82929660166181	 12.025800000000002	 0.0
 145	 1	 1	 0.0	 22.05454934293603	 12.733200000000002	 0.0
 146	 1	 1	 0.0	 23.279802084210257	 12.025800000000002	 0.0
 147	 1	 11	 0.15	 24.50505482548448	 12.733200000000002	 0.0
 148	 1	 1	 -0.115	 0.0	 14.148	 0.0
 149	 1	 1	 0.0	 1.225252741274224	 14.8554	 0.0
 150	 1	 1	 0.0	 2.450505482548448	 14.148	 0.0
 151	 1	 1	 0.0	 3.675758223822672	 14.8554	 0.0
 152	 1	 1	 0.0	 4.901010965096896	 14.148	 0.0
 153	 1	 1	 0.0	 6.12626370637112	 14.8554	 0.0
 154	 1	 1	 0.0	 7.351516447645344	 14.148	 0.0
 155	 1	 1	 0.0	 8.576769188919569	 14.8554	 0.0
 156	 1	 1	 0.0	 9.802021930193792	 14.148	 0.0
 157	 1	 1	 0.0	 11.027274671468016	 14.8554	 0.0
 158	 1	 1	 0.0	 12.25252741274224	 14.148	 0.0
 159	 1	 1	 0.0	 13.477780154016463	 14.8554	 0.0
 160	 1	 1	 0.0	 14.703032895290686	 14.148	 0.0
 161	 1	 1	 0.0	 15.928285636564912	 14.8554	 0.0
 162	 1	 1	 0.0	 17.153538377839137	 14.148	 0.0
 163	 1	 1	 0.0	 18.378791119113362	 14.8554	 0.0
 164	 1	 1	 0.0	 19.604043860387584	 14.148	 0.0
 165	 1	 1	 0.0	 20.82929660166181	 14.8554	 0.0
 166	 1	 1	 0.0	 22.05454934293603	 14.148	 0.0
 167	 1	 1	 0.0	 23.279802084210257	 14.8554	 0.0
 168	 1	 1	 -0.115	 24.50505482548448	 14.148	 0.0
 169	 1	 1	 -0.115	 0.0	 16.977600000000002	 0.0
 170	 1	 1	 0.0	 1.225252741274224	 16.270200000000003	 0.0
 171	 1	 1	 0.0	 2.450505482548448	 16.977600000000002	 0.0
 172	 1	 1	 0.0	 3.675758223822672	 16.270200000000003	 0.0
 173	 1	 1	 0.0	 4.901010965096896	 16.977600000000002	 0.0
 174	 1	 1	 0.0	 6.12626370637112	 16.270200000000003	 0.0
 175	 1	 1	 0.0	 7.351516447645344	 16.977600000000002	 0.0
 176	 1	 1	 0.0	 8.576769188919569	 16.270200000000003	 0.0
 177	 1	 1	 0.0	 9.802021930193792	 16.977600000000002	 0.0
 178	 1	 1	 0.0	 11.027274671468016	 16.270200000000003	 0.0
 179	 1	 1	 0.0	 12.25252741274224	 16.977600000000002	 0.0
 180	 1	 1	 0.0	 13.477780154016463	 16.270200000000003	 0.0
 181	 1	 1	 0.0	 14.703032895290686	 16.977600000000002	 0.0
 182	 1	 1	 0.0	 15.928285636564912	 16.270200000000003	 0.0
 183	 1	 1	 0.0	 17.153538377839137	 16.977600000000002	 0.0
 184	 1	 1	 0.0	 18.378791119113362	 16.270200000000003	 0.0
 185	 1	 1	 0.0	 19.604043860387584	 16.977600000000002	 0.0
 186	 1	 1	 0.0	 20.82929660166181	 16.270200000000003	 0.0
 187	 1	 1	 0.0	 22.05454934293603	 16.977600000000002	 0.0
 188	 1	 1	 0.0	 23.279802084210257	 16.270200000000003	 0.0
 189	 1	 11	 0.15	 24.50505482548448	 16.977600000000002	 0.0
 190	 1	 11	 0.15	 0.0	 18.392400000000002	 0.0
 191	 1	 1	 0.0	 1.225252741274224	 19.099800000000002	 0.0
 192	 1	 1	 0.0	 2.450505482548448	 18.392400000000002	 0.0
 193	 1	 1	 0.0	 3.675758223822672	 19.099800000000002	 0.0
 194	 1	 1	 0.0	 4.901010965096896	 18.392400000000002	 0.0
 195	 1	 1	 0.0	 6.12626370637112	 19.099800000000002	 0.0
 196	 1	 1	 0.0	 7.351516447645344	 18.392400000000002	 0.0
 197	 1	 1	 0.0	 8.576769188919569	 19.099800000000002	 0.0
 198	 1	 1	 0.0	 9.802021930193792	 18.392400000000002	 0.0
 199	 1	 1	 0.0	 11.027274671468016	 19.099800000000002	 0.0
 200	 1	 1	 0.0	 12.25252741274224	 18.392400000000002	 0.0
 201	 1	 1	 0.0	 13.477780154016463	 19.099800000000002	 0.0
 202	 1	 1	 0.0	 14.703032895290686	 18.392400000000002	 0.0
 203	 1	 1	 0.0	 15.928285636564912	 19.099800000000002	 0.0
 204	 1	 1	 0.0	 17.153538377839137	 18.392400000000002	 0.0
 205	 1	 1	 0.0	 18.378791119113362	 19.099800000000002	 0.0
 206	 1	 1	 0.0	 19.604043860387584	 18.392400000000002	 0.0
 207	 1	 1	 0.0	 20.82929660166181	 19.099800000000002	 0.0
 208	 1	 1	 0.0	 22.05454934293603	 18.392400000000002	 0.0
 209	 1	 1	 0.0	 23.279802084210257	 19.099800000000002	 0.0
 210	 1	 1	 -0.115	 24.50505482548448	 18.392400000000002	 0.0
 211	 1	 1	 -0.115	 0.0	 21.222	 0.0
 212	 1	 1	 0.0	 1.225252741274224	 20.5146	 0.0
 213	 1	 1	 0.0	 2.450505482548448	 21.222	 0.0
 214	 1	 1	 0.0	 3.675758223822672	 20.5146	 0.0
 215	 1	 1	 0.0	 4.901010965096896	 21.222	 0.0
 216	 1	 1	 0.0	 6.12626370637112	 20.5146	 0.0
 217	 1	 1	 0.0	 7.351516447645344	 21.222	 0.0
 218	 1	 1	 0.0	 8.576769188919569	 20.5146	 0.0
 219	 1	 1	 0.0	 9.802021930193792	 21.222	 0.0
 220	 1	 1	 0.0	 11.027274671468016	 20.5146	 0.0
 221	 1	 1	 0.0	 12.25252741274224	 21.222	 0.0
 222	 1	 1	 0.0	 13.477780154016463	 20.5146	 0.0
 223	 1	 1	 0.0	 14.703032895290686	 21.222	 0.0
 224	 1	 1	 0.0	 15.928285636564912	 20.5146	 0.0
 225	 1	 1	 0.0	 17.153538377839137	 21.222	 0.0
 226	 1	 1	 0.0	 18.378791119113362	 20.5146	 0.0
 227	 1	 1	 0.0	 19.604043860387584	 21.222	 0.0
 228	 1	 1	 0.0	 20.82929660166181	 20.5146	 0.0
 229	 1	 1	 0.0	 22.05454934293603	 21.222	 0.0
 230	 1	 1	 0.0	 23.279802084210257	 20.5146	 0.0
 231	 1	 1	 -0.115	 24.50505482548448	 21.222	 0.0
 232	 1	 1	 -0.115	 0.0	 22.6368	 0.0
 233	 1	 11	 0.15	 1.225252741274224	 23.3442	 0.0
 234	 1	 1	 0.0	 2.450505482548448	 22.6368	 0.0
 235	 1	 1	 -0.115	 3.675758223822672	 23.3442	 0.0
 236	 1	 1	 0.0	 4.901010965096896	 22.6368	 0.0
 237	 1	 1	 -0.115	 6.12626370637112	 23.3442	 0.0
 238	 1	 1	 0.0	 7.351516447645344	 22.6368	 0.0
 239	 1	 1	 -0.115	 8.576769188919569	 23.3442	 0.0
 240	 1	 1	 0.0	 9.802021930193792	 22.6368	 0.0
 241	 1	 1	 -0.115	 11.027274671468016	 23.3442	 0.0
 242	 1	 1	 0.0	 12.25252741274224	 22.6368	 0.0
 243	 1	 1	 -0.115	 13.477780154016463	 23.3442	 0.0
 244	 1	 1	 0.0	 14.703032895290686	 22.6368	 0.0
 245	 1	 11	 0.15	 15.928285636564912	 23.3442	 0.0
 246	 1	 1	 0.0	 17.153538377839137	 22.6368	 0.0
 247	 1	 11	 0.15	 18.378791119113362	 23.3442	 0.0
 248	 1	 1	 0.0	 19.604043860387584	 22.6368	 0.0
 249	 1	 1	 -0.115	 20.82929660166181	 23.3442	 0.0
 250	 1	 1	 0.0	 22.05454934293603	 22.6368	 0.0
 251	 1	 11	 0.15	 23.279802084210257	 23.3442	 0.0
 252	 1	 1	 -0.115	 24.50505482548448	 22.6368	 0.0
 253	 1	 7	 -0.585	 1.225252741274224	 -2.1074	 0.0
 254	 1	 2	 0.115	 3.675758223822672	 -1.7844	 0.0
 255	 1	 7	 -0.585	 6.12626370637112	 -2.1074	 0.0
 256	 1	 2	 0.115	 8.576769188919569	 -1.7844	 0.0
 257	 1	 2	 0.115	 11.027274671468016	 -1.7844	 0.0
 258	 1	 2	 0.115	 13.477780154016463	 -1.7844	 0.0
 259	 1	 2	 0.115	 15.928285636564912	 -1.7844	 0.0
 260	 1	 7	 -0.585	 18.378791119113362	 -2.1074	 0.0
 261	 1	 2	 0.115	 20.82929660166181	 -1.7844	 0.0
 262	 1	 2	 0.115	 23.279802084210257	 -1.7844	 0.0
 263	 1	 7	 -0.585	 1.225252741274224	 24.7442	 0.0
 264	 1	 2	 0.115	 3.675758223822672	 24.4212	 0.0
 265	 1	 2	 0.115	 6.12626370637112	 24.4212	 0.0
 266	 1	 2	 0.115	 8.576769188919569	 24.4212	 0.0
 267	 1	 2	 0.115	 11.027274671468016	 24.4212	 0.0
 268	 1	 2	 0.115	 13.477780154016463	 24.4212	 0.0
 269	 1	 7	 -0.585	 15.928285636564912	 24.7442	 0.0
 270	 1	 7	 -0.585	 18.378791119113362	 24.7442	 0.0
 271	 1	 2	 0.115	 20.82929660166181	 24.4212	 0.0
 272	 1	 7	 -0.585	 23.279802084210257	 24.7442	 0.0
 273	 1	 7	 -0.585	 -1.2124355652982142	 -0.7	 0.0
 274	 1	 2	 0.115	 -0.9327093598758405	 1.9533	 0.0
 275	 1	 2	 0.115	 25.43776418536032	 -0.5385	 0.0
 276	 1	 2	 0.115	 25.43776418536032	 1.9533	 0.0
 277	 1	 2	 0.115	 -0.9327093598758405	 3.7059000000000006	 0.0
 278	 1	 2	 0.115	 -0.9327093598758405	 6.1977	 0.0
 279	 1	 7	 -0.585	 25.717490390782693	 3.5444000000000004	 0.0
 280	 1	 2	 0.115	 25.43776418536032	 6.1977	 0.0
 281	 1	 2	 0.115	 -0.9327093598758405	 7.950300000000001	 0.0
 282	 1	 7	 -0.585	 -1.2124355652982146	 10.6036	 0.0
 283	 1	 2	 0.115	 25.43776418536032	 7.950300000000001	 0.0
 284	 1	 2	 0.115	 25.43776418536032	 10.4421	 0.0
 285	 1	 2	 0.115	 -0.9327093598758405	 12.194700000000001	 0.0
 286	 1	 2	 0.115	 -0.9327093598758405	 14.686499999999999	 0.0
 287	 1	 7	 -0.585	 25.717490390782693	 12.0332	 0.0
 288	 1	 2	 0.115	 25.43776418536032	 14.686499999999999	 0.0
 289	 1	 2	 0.115	 -0.9327093598758405	 16.439100000000003	 0.0
 290	 1	 7	 -0.585	 -1.2124355652982146	 19.0924	 0.0
 291	 1	 7	 -0.585	 25.717490390782693	 16.277600000000003	 0.0
 292	 1	 2	 0.115	 25.43776418536032	 18.9309	 0.0
 293	 1	 2	 0.115	 -0.9327093598758405	 20.683500000000002	 0.0
 294	 1	 2	 0.115	 -0.9327093598758405	 23.1753	 0.0
 295	 1	 2	 0.115	 25.43776418536032	 20.683500000000002	 0.0
 296	 1	 2	 0.115	 25.43776418536032	 23.1753	 0.0
 297	 1	 5	 0.435	 1.225252741274224	 -2.8074000000000003	 -0.7
 298	 1	 5	 0.435	 6.12626370637112	 -2.8074000000000003	 0.7
 299	 1	 5	 0.435	 18.378791119113362	 -2.8074000000000003	 -0.7
 300	 1	 5	 0.435	 1.225252741274224	 25.4442	 0.7
 301	 1	 5	 0.435	 15.928285636564912	 25.4442	 -0.7
 302	 1	 5	 0.435	 18.378791119113362	 25.4442	 -0.7
 303	 1	 5	 0.435	 23.279802084210257	 25.4442	 0.7
 304	 1	 5	 0.435	 -1.8186533479473213	 -1.0499999999999998	 -0.7
 305	 1	 5	 0.435	 26.3237081734318	 3.1944000000000004	 -0.7
 306	 1	 5	 0.435	 -1.818653347947322	 10.9536	 0.7
 307	 1	 5	 0.435	 26.3237081734318	 11.683200000000001	 -0.7
 308	 1	 5	 0.435	 -1.818653347947322	 19.4424	 0.7
 309	 1	 5	 0.435	 26.3237081734318	 15.927600000000004	 0.7
 
 Bonds 
 
1	 1	 1	 2
2	 2	 2	 3
3	 3	 3	 4
4	 3	 4	 5
5	 2	 5	 6
6	 2	 6	 7
7	 3	 7	 8
8	 3	 8	 9
9	 3	 9	 10
10	 3	 10	 11
11	 3	 11	 12
12	 3	 12	 13
13	 3	 13	 14
14	 3	 14	 15
15	 2	 15	 16
16	 2	 16	 17
17	 3	 17	 18
18	 3	 18	 19
19	 3	 19	 20
20	 3	 20	 21
21	 3	 22	 23
22	 3	 23	 24
23	 3	 24	 25
24	 3	 25	 26
25	 3	 26	 27
26	 3	 27	 28
27	 3	 28	 29
28	 3	 29	 30
29	 3	 30	 31
30	 3	 31	 32
31	 3	 32	 33
32	 3	 33	 34
33	 3	 34	 35
34	 3	 35	 36
35	 3	 36	 37
36	 3	 37	 38
37	 3	 38	 39
38	 3	 39	 40
39	 3	 40	 41
40	 3	 41	 42
41	 3	 43	 44
42	 3	 44	 45
43	 3	 45	 46
44	 3	 46	 47
45	 3	 47	 48
46	 3	 48	 49
47	 3	 49	 50
48	 3	 50	 51
49	 3	 51	 52
50	 3	 52	 53
51	 3	 53	 54
52	 3	 54	 55
53	 3	 55	 56
54	 3	 56	 57
55	 3	 57	 58
56	 3	 58	 59
57	 3	 59	 60
58	 3	 60	 61
59	 3	 61	 62
60	 2	 62	 63
61	 3	 64	 65
62	 3	 65	 66
63	 3	 66	 67
64	 3	 67	 68
65	 3	 68	 69
66	 3	 69	 70
67	 3	 70	 71
68	 3	 71	 72
69	 3	 72	 73
70	 3	 73	 74
71	 3	 74	 75
72	 3	 75	 76
73	 3	 76	 77
74	 3	 77	 78
75	 3	 78	 79
76	 3	 79	 80
77	 3	 80	 81
78	 3	 81	 82
79	 3	 82	 83
80	 3	 83	 84
81	 3	 85	 86
82	 3	 86	 87
83	 3	 87	 88
84	 3	 88	 89
85	 3	 89	 90
86	 3	 90	 91
87	 3	 91	 92
88	 3	 92	 93
89	 3	 93	 94
90	 3	 94	 95
91	 3	 95	 96
92	 3	 96	 97
93	 3	 97	 98
94	 3	 98	 99
95	 3	 99	 100
96	 3	 100	 101
97	 3	 101	 102
98	 3	 102	 103
99	 3	 103	 104
100	 3	 104	 105
101	 2	 106	 107
102	 3	 107	 108
103	 3	 108	 109
104	 3	 109	 110
105	 3	 110	 111
106	 3	 111	 112
107	 3	 112	 113
108	 3	 113	 114
109	 3	 114	 115
110	 3	 115	 116
111	 3	 116	 117
112	 3	 117	 118
113	 3	 118	 119
114	 3	 119	 120
115	 3	 120	 121
116	 3	 121	 122
117	 3	 122	 123
118	 3	 123	 124
119	 3	 124	 125
120	 3	 125	 126
121	 3	 127	 128
122	 3	 128	 129
123	 3	 129	 130
124	 3	 130	 131
125	 3	 131	 132
126	 3	 132	 133
127	 3	 133	 134
128	 3	 134	 135
129	 3	 135	 136
130	 3	 136	 137
131	 3	 137	 138
132	 3	 138	 139
133	 3	 139	 140
134	 3	 140	 141
135	 3	 141	 142
136	 3	 142	 143
137	 3	 143	 144
138	 3	 144	 145
139	 3	 145	 146
140	 2	 146	 147
141	 3	 148	 149
142	 3	 149	 150
143	 3	 150	 151
144	 3	 151	 152
145	 3	 152	 153
146	 3	 153	 154
147	 3	 154	 155
148	 3	 155	 156
149	 3	 156	 157
150	 3	 157	 158
151	 3	 158	 159
152	 3	 159	 160
153	 3	 160	 161
154	 3	 161	 162
155	 3	 162	 163
156	 3	 163	 164
157	 3	 164	 165
158	 3	 165	 166
159	 3	 166	 167
160	 3	 167	 168
161	 3	 169	 170
162	 3	 170	 171
163	 3	 171	 172
164	 3	 172	 173
165	 3	 173	 174
166	 3	 174	 175
167	 3	 175	 176
168	 3	 176	 177
169	 3	 177	 178
170	 3	 178	 179
171	 3	 179	 180
172	 3	 180	 181
173	 3	 181	 182
174	 3	 182	 183
175	 3	 183	 184
176	 3	 184	 185
177	 3	 185	 186
178	 3	 186	 187
179	 3	 187	 188
180	 2	 188	 189
181	 2	 190	 191
182	 3	 191	 192
183	 3	 192	 193
184	 3	 193	 194
185	 3	 194	 195
186	 3	 195	 196
187	 3	 196	 197
188	 3	 197	 198
189	 3	 198	 199
190	 3	 199	 200
191	 3	 200	 201
192	 3	 201	 202
193	 3	 202	 203
194	 3	 203	 204
195	 3	 204	 205
196	 3	 205	 206
197	 3	 206	 207
198	 3	 207	 208
199	 3	 208	 209
200	 3	 209	 210
201	 3	 211	 212
202	 3	 212	 213
203	 3	 213	 214
204	 3	 214	 215
205	 3	 215	 216
206	 3	 216	 217
207	 3	 217	 218
208	 3	 218	 219
209	 3	 219	 220
210	 3	 220	 221
211	 3	 221	 222
212	 3	 222	 223
213	 3	 223	 224
214	 3	 224	 225
215	 3	 225	 226
216	 3	 226	 227
217	 3	 227	 228
218	 3	 228	 229
219	 3	 229	 230
220	 3	 230	 231
221	 2	 232	 233
222	 2	 233	 234
223	 3	 234	 235
224	 3	 235	 236
225	 3	 236	 237
226	 3	 237	 238
227	 3	 238	 239
228	 3	 239	 240
229	 3	 240	 241
230	 3	 241	 242
231	 3	 242	 243
232	 3	 243	 244
233	 2	 244	 245
234	 2	 245	 246
235	 2	 246	 247
236	 2	 247	 248
237	 3	 248	 249
238	 3	 249	 250
239	 2	 250	 251
240	 2	 251	 252
241	 2	 1	 22
242	 3	 3	 24
243	 3	 5	 26
244	 3	 7	 28
245	 3	 9	 30
246	 3	 11	 32
247	 3	 13	 34
248	 3	 15	 36
249	 3	 17	 38
250	 3	 19	 40
251	 3	 21	 42
252	 3	 23	 44
253	 3	 25	 46
254	 3	 27	 48
255	 3	 29	 50
256	 3	 31	 52
257	 3	 33	 54
258	 3	 35	 56
259	 3	 37	 58
260	 3	 39	 60
261	 3	 41	 62
262	 3	 43	 64
263	 3	 45	 66
264	 3	 47	 68
265	 3	 49	 70
266	 3	 51	 72
267	 3	 53	 74
268	 3	 55	 76
269	 3	 57	 78
270	 3	 59	 80
271	 3	 61	 82
272	 2	 63	 84
273	 3	 65	 86
274	 3	 67	 88
275	 3	 69	 90
276	 3	 71	 92
277	 3	 73	 94
278	 3	 75	 96
279	 3	 77	 98
280	 3	 79	 100
281	 3	 81	 102
282	 3	 83	 104
283	 2	 85	 106
284	 3	 87	 108
285	 3	 89	 110
286	 3	 91	 112
287	 3	 93	 114
288	 3	 95	 116
289	 3	 97	 118
290	 3	 99	 120
291	 3	 101	 122
292	 3	 103	 124
293	 3	 105	 126
294	 3	 107	 128
295	 3	 109	 130
296	 3	 111	 132
297	 3	 113	 134
298	 3	 115	 136
299	 3	 117	 138
300	 3	 119	 140
301	 3	 121	 142
302	 3	 123	 144
303	 3	 125	 146
304	 3	 127	 148
305	 3	 129	 150
306	 3	 131	 152
307	 3	 133	 154
308	 3	 135	 156
309	 3	 137	 158
310	 3	 139	 160
311	 3	 141	 162
312	 3	 143	 164
313	 3	 145	 166
314	 2	 147	 168
315	 3	 149	 170
316	 3	 151	 172
317	 3	 153	 174
318	 3	 155	 176
319	 3	 157	 178
320	 3	 159	 180
321	 3	 161	 182
322	 3	 163	 184
323	 3	 165	 186
324	 3	 167	 188
325	 2	 169	 190
326	 3	 171	 192
327	 3	 173	 194
328	 3	 175	 196
329	 3	 177	 198
330	 3	 179	 200
331	 3	 181	 202
332	 3	 183	 204
333	 3	 185	 206
334	 3	 187	 208
335	 2	 189	 210
336	 3	 191	 212
337	 3	 193	 214
338	 3	 195	 216
339	 3	 197	 218
340	 3	 199	 220
341	 3	 201	 222
342	 3	 203	 224
343	 3	 205	 226
344	 3	 207	 228
345	 3	 209	 230
346	 3	 211	 232
347	 3	 213	 234
348	 3	 215	 236
349	 3	 217	 238
350	 3	 219	 240
351	 3	 221	 242
352	 3	 223	 244
353	 3	 225	 246
354	 3	 227	 248
355	 3	 229	 250
356	 3	 231	 252
357	 4	 2	 253
358	 5	 4	 254
359	 4	 6	 255
360	 5	 8	 256
361	 5	 10	 257
362	 5	 12	 258
363	 5	 14	 259
364	 4	 16	 260
365	 5	 18	 261
366	 5	 20	 262
367	 4	 233	 263
368	 5	 235	 264
369	 5	 237	 265
370	 5	 239	 266
371	 5	 241	 267
372	 5	 243	 268
373	 4	 245	 269
374	 4	 247	 270
375	 5	 249	 271
376	 4	 251	 272
377	 4	 1	 273
378	 5	 22	 274
379	 5	 21	 275
380	 5	 42	 276
381	 5	 43	 277
382	 5	 64	 278
383	 4	 63	 279
384	 5	 84	 280
385	 5	 85	 281
386	 4	 106	 282
387	 5	 105	 283
388	 5	 126	 284
389	 5	 127	 285
390	 5	 148	 286
391	 4	 147	 287
392	 5	 168	 288
393	 5	 169	 289
394	 4	 190	 290
395	 4	 189	 291
396	 5	 210	 292
397	 5	 211	 293
398	 5	 232	 294
399	 5	 231	 295
400	 5	 252	 296
401	 6	 253	 297
402	 6	 255	 298
403	 6	 260	 299
404	 6	 263	 300
405	 6	 269	 301
406	 6	 270	 302
407	 6	 272	 303
408	 6	 273	 304
409	 6	 279	 305
410	 6	 282	 306
411	 6	 287	 307
412	 6	 290	 308
413	 6	 291	 309

 Angles 
 
1	 1	 273	 1	 2
2	 2	 273	 1	 22
3	 3	 2	 1	 22
4	 3	 1	 2	 3
5	 1	 1	 2	 253
6	 2	 3	 2	 253
7	 4	 2	 3	 4
8	 4	 2	 3	 24
9	 5	 4	 3	 24
10	 5	 3	 4	 5
11	 6	 3	 4	 254
12	 6	 5	 4	 254
13	 5	 26	 5	 4
14	 4	 26	 5	 6
15	 4	 4	 5	 6
16	 2	 5	 6	 255
17	 7	 5	 6	 7
18	 2	 255	 6	 7
19	 4	 28	 7	 6
20	 5	 28	 7	 8
21	 4	 6	 7	 8
22	 5	 9	 8	 7
23	 6	 9	 8	 256
24	 6	 7	 8	 256
25	 5	 10	 9	 30
26	 5	 10	 9	 8
27	 5	 30	 9	 8
28	 6	 9	 10	 257
29	 5	 9	 10	 11
30	 6	 257	 10	 11
31	 5	 10	 11	 12
32	 5	 10	 11	 32
33	 5	 12	 11	 32
34	 6	 258	 12	 11
35	 6	 258	 12	 13
36	 5	 11	 12	 13
37	 5	 34	 13	 12
38	 5	 34	 13	 14
39	 5	 12	 13	 14
40	 6	 259	 14	 13
41	 6	 259	 14	 15
42	 5	 13	 14	 15
43	 5	 36	 15	 14
44	 4	 36	 15	 16
45	 4	 14	 15	 16
46	 2	 17	 16	 260
47	 7	 17	 16	 15
48	 2	 260	 16	 15
49	 5	 18	 17	 38
50	 4	 18	 17	 16
51	 4	 38	 17	 16
52	 5	 17	 18	 19
53	 6	 17	 18	 261
54	 6	 19	 18	 261
55	 5	 18	 19	 20
56	 5	 18	 19	 40
57	 5	 20	 19	 40
58	 5	 19	 20	 21
59	 6	 19	 20	 262
60	 6	 21	 20	 262
61	 6	 42	 21	 275
62	 5	 42	 21	 20
63	 6	 275	 21	 20
64	 8	 1	 22	 274
65	 4	 1	 22	 23
66	 6	 274	 22	 23
67	 5	 44	 23	 22
68	 5	 44	 23	 24
69	 5	 22	 23	 24
70	 5	 25	 24	 3
71	 5	 25	 24	 23
72	 5	 3	 24	 23
73	 5	 26	 25	 46
74	 5	 26	 25	 24
75	 5	 46	 25	 24
76	 5	 25	 26	 27
77	 5	 25	 26	 5
78	 5	 27	 26	 5
79	 5	 26	 27	 28
80	 5	 26	 27	 48
81	 5	 28	 27	 48
82	 5	 27	 28	 29
83	 5	 27	 28	 7
84	 5	 29	 28	 7
85	 5	 50	 29	 28
86	 5	 50	 29	 30
87	 5	 28	 29	 30
88	 5	 9	 30	 29
89	 5	 9	 30	 31
90	 5	 29	 30	 31
91	 5	 52	 31	 30
92	 5	 52	 31	 32
93	 5	 30	 31	 32
94	 5	 33	 32	 11
95	 5	 33	 32	 31
96	 5	 11	 32	 31
97	 5	 34	 33	 54
98	 5	 34	 33	 32
99	 5	 54	 33	 32
100	 5	 33	 34	 35
101	 5	 33	 34	 13
102	 5	 35	 34	 13
103	 5	 34	 35	 36
104	 5	 34	 35	 56
105	 5	 36	 35	 56
106	 5	 35	 36	 37
107	 5	 35	 36	 15
108	 5	 37	 36	 15
109	 5	 58	 37	 36
110	 5	 58	 37	 38
111	 5	 36	 37	 38
112	 5	 17	 38	 37
113	 5	 17	 38	 39
114	 5	 37	 38	 39
115	 5	 60	 39	 38
116	 5	 60	 39	 40
117	 5	 38	 39	 40
118	 5	 41	 40	 19
119	 5	 41	 40	 39
120	 5	 19	 40	 39
121	 5	 42	 41	 62
122	 5	 42	 41	 40
123	 5	 62	 41	 40
124	 6	 41	 42	 276
125	 5	 41	 42	 21
126	 6	 276	 42	 21
127	 6	 44	 43	 277
128	 5	 44	 43	 64
129	 6	 277	 43	 64
130	 5	 43	 44	 45
131	 5	 43	 44	 23
132	 5	 45	 44	 23
133	 5	 66	 45	 44
134	 5	 66	 45	 46
135	 5	 44	 45	 46
136	 5	 25	 46	 45
137	 5	 25	 46	 47
138	 5	 45	 46	 47
139	 5	 68	 47	 46
140	 5	 68	 47	 48
141	 5	 46	 47	 48
142	 5	 49	 48	 27
143	 5	 49	 48	 47
144	 5	 27	 48	 47
145	 5	 50	 49	 70
146	 5	 50	 49	 48
147	 5	 70	 49	 48
148	 5	 49	 50	 51
149	 5	 49	 50	 29
150	 5	 51	 50	 29
151	 5	 50	 51	 52
152	 5	 50	 51	 72
153	 5	 52	 51	 72
154	 5	 51	 52	 53
155	 5	 51	 52	 31
156	 5	 53	 52	 31
157	 5	 74	 53	 52
158	 5	 74	 53	 54
159	 5	 52	 53	 54
160	 5	 33	 54	 53
161	 5	 33	 54	 55
162	 5	 53	 54	 55
163	 5	 76	 55	 54
164	 5	 76	 55	 56
165	 5	 54	 55	 56
166	 5	 57	 56	 35
167	 5	 57	 56	 55
168	 5	 35	 56	 55
169	 5	 58	 57	 78
170	 5	 58	 57	 56
171	 5	 78	 57	 56
172	 5	 57	 58	 59
173	 5	 57	 58	 37
174	 5	 59	 58	 37
175	 5	 58	 59	 60
176	 5	 58	 59	 80
177	 5	 60	 59	 80
178	 5	 59	 60	 61
179	 5	 59	 60	 39
180	 5	 61	 60	 39
181	 5	 82	 61	 60
182	 5	 82	 61	 62
183	 5	 60	 61	 62
184	 5	 41	 62	 61
185	 4	 41	 62	 63
186	 4	 61	 62	 63
187	 7	 84	 63	 62
188	 2	 84	 63	 279
189	 2	 62	 63	 279
190	 5	 65	 64	 43
191	 6	 65	 64	 278
192	 6	 43	 64	 278
193	 5	 66	 65	 86
194	 5	 66	 65	 64
195	 5	 86	 65	 64
196	 5	 65	 66	 67
197	 5	 65	 66	 45
198	 5	 67	 66	 45
199	 5	 66	 67	 68
200	 5	 66	 67	 88
201	 5	 68	 67	 88
202	 5	 67	 68	 69
203	 5	 67	 68	 47
204	 5	 69	 68	 47
205	 5	 90	 69	 68
206	 5	 90	 69	 70
207	 5	 68	 69	 70
208	 5	 49	 70	 69
209	 5	 49	 70	 71
210	 5	 69	 70	 71
211	 5	 92	 71	 70
212	 5	 92	 71	 72
213	 5	 70	 71	 72
214	 5	 73	 72	 51
215	 5	 73	 72	 71
216	 5	 51	 72	 71
217	 5	 74	 73	 94
218	 5	 74	 73	 72
219	 5	 94	 73	 72
220	 5	 73	 74	 75
221	 5	 73	 74	 53
222	 5	 75	 74	 53
223	 5	 74	 75	 76
224	 5	 74	 75	 96
225	 5	 76	 75	 96
226	 5	 75	 76	 77
227	 5	 75	 76	 55
228	 5	 77	 76	 55
229	 5	 98	 77	 76
230	 5	 98	 77	 78
231	 5	 76	 77	 78
232	 5	 57	 78	 77
233	 5	 57	 78	 79
234	 5	 77	 78	 79
235	 5	 100	 79	 78
236	 5	 100	 79	 80
237	 5	 78	 79	 80
238	 5	 81	 80	 59
239	 5	 81	 80	 79
240	 5	 59	 80	 79
241	 5	 82	 81	 102
242	 5	 82	 81	 80
243	 5	 102	 81	 80
244	 5	 81	 82	 83
245	 5	 81	 82	 61
246	 5	 83	 82	 61
247	 5	 82	 83	 84
248	 5	 82	 83	 104
249	 5	 84	 83	 104
250	 4	 83	 84	 63
251	 6	 83	 84	 280
252	 8	 63	 84	 280
253	 8	 281	 85	 106
254	 6	 281	 85	 86
255	 4	 106	 85	 86
256	 5	 65	 86	 85
257	 5	 65	 86	 87
258	 5	 85	 86	 87
259	 5	 108	 87	 86
260	 5	 108	 87	 88
261	 5	 86	 87	 88
262	 5	 89	 88	 67
263	 5	 89	 88	 87
264	 5	 67	 88	 87
265	 5	 90	 89	 110
266	 5	 90	 89	 88
267	 5	 110	 89	 88
268	 5	 89	 90	 91
269	 5	 89	 90	 69
270	 5	 91	 90	 69
271	 5	 90	 91	 92
272	 5	 90	 91	 112
273	 5	 92	 91	 112
274	 5	 91	 92	 93
275	 5	 91	 92	 71
276	 5	 93	 92	 71
277	 5	 114	 93	 92
278	 5	 114	 93	 94
279	 5	 92	 93	 94
280	 5	 73	 94	 93
281	 5	 73	 94	 95
282	 5	 93	 94	 95
283	 5	 116	 95	 94
284	 5	 116	 95	 96
285	 5	 94	 95	 96
286	 5	 97	 96	 75
287	 5	 97	 96	 95
288	 5	 75	 96	 95
289	 5	 98	 97	 118
290	 5	 98	 97	 96
291	 5	 118	 97	 96
292	 5	 97	 98	 99
293	 5	 97	 98	 77
294	 5	 99	 98	 77
295	 5	 98	 99	 100
296	 5	 98	 99	 120
297	 5	 100	 99	 120
298	 5	 99	 100	 101