# GO
309 atoms 
376 bonds 
705 angles 
1421 dihedrals 
124 impropers 

354 atom types 
10 bond types 
20 angle types 
44 dihedral types 
11 improper types 

0.0	122.0	 xlo xhi 
0.0	120.0	 ylo yhi 
0.0	3.4827	 zlo zhi 


 Masses 
 
1	12.011
2	1.008
3	12.011
4	15.999
5	1.008
6	15.999
7	15.999
8	12.011
9	15.999
10	15.999
11	12.011
12	12.011
13	15.999
354	40.08
349	22.99

 Pair Coeffs 
 
1	0.07	3.55
2	0.03	2.42
3	0.066	3.5
4	0.17	3.12
5	0.0	0.0
6	0.14	2.9
7	0.17	3.07
8	0.105	3.75
9	0.21	2.96
10	0.17	3.0
11	0.07	3.55
12	0.105	3.75
13	0.21	2.96
354	0.449657	2.412031
349	0.0005	4.07

 Bond Coeffs 
 
1	469.0	1.4
2	469.0	1.4
3	317.0	1.51
4	268.0	1.529
5	469.0	1.4
6	367.0	1.08
7	450.0	1.364
8	553.0	0.945
9	320.0	1.41
10	553.0	0.945

 Angle Coeffs 
 
1	70.0	120.0
2	63.0	120.0
3	63.0	120.0
4	35.0	120.0
5	35.0	120.0
6	70.0	120.0
7	63.0	120.0
8	35.0	117.0
9	40.0	109.5
10	50.0	109.5
11	70.0	130.0
12	50.0	109.5
13	63.0	114.0
14	58.35	112.7
15	63.0	120.0
16	70.0	120.0
17	70.0	120.0
18	63.0	120.0
19	35.0	113.0
20	55.0	108.5

 Dihedral Coeffs 
 
1	0.0	7.25	0.0	0.0
2	0.0	7.25	0.0	0.0
3	0.0	7.25	0.0	0.0
4	0.0	7.25	0.0	0.0
5	0.0	7.25	0.0	0.0
6	0.0	7.25	0.0	0.0
7	0.0	7.25	0.0	0.0
8	0.0	7.25	0.0	0.0
9	0.0	7.25	0.0	0.0
10	0.0	7.25	0.0	0.0
11	0.0	7.25	0.0	0.0
12	0.0	-8.0	0.0	0.0
13	0.0	0.0	0.468	0.0
14	0.0	0.0	0.0	0.0
15	0.0	0.0	0.0	0.0
16	0.0	7.25	0.0	0.0
17	0.0	7.25	0.0	0.0
18	0.0	-8.0	0.0	0.0
19	1.711	-0.5	0.663	0.0
20	2.817	-0.169	0.543	0.0
21	0.0	0.0	0.366	0.0
22	9.508	0.0	0.0	0.0
23	-1.552	0.0	0.0	0.0
24	-4.344	-1.714	0.0	0.0
25	1.711	-0.5	0.663	0.0
26	0.0	0.0	0.0	0.0
27	0.0	7.25	0.0	0.0
28	1.3	-0.05	0.2	0.0
29	0.0	7.25	0.0	0.0
30	0.0	7.25	0.0	0.0
31	0.0	0.0	0.0	0.0
32	0.0	0.0	0.0	0.0
33	0.0	7.25	0.0	0.0
34	0.0	0.0	0.0	0.0
35	0.0	7.25	0.0	0.0
36	0.0	7.25	0.0	0.0
37	0.0	7.25	0.0	0.0
38	0.0	7.25	0.0	0.0
39	0.0	7.25	0.0	0.0
40	0.0	7.25	0.0	0.0
41	0.0	1.682	0.0	0.0
42	0.0	1.682	0.0	0.0
43	-0.356	-0.174	0.492	0.0
44	-0.9	0.0	0.0	0.0

 Improper Coeffs 
 
1	5.0	180.0
2	5.0	180.0
3	5.0	180.0
4	5.0	180.0
5	5.0	180.0
6	5.0	180.0
7	5.0	180.0
8	5.0	180.0
9	5.0	180.0
10	5.0	180.0
11	5.0	180.0

 Atoms 
 
1	 1	 11	 0.15	 0.0	 0.0	 0.0
 2	 1	 1	 -0.115	 1.225252741274224	 -0.7074	 0.0
 3	 1	 1	 0.0	 2.450505482548448	 0.0	 0.0
 4	 1	 1	 -0.115	 3.675758223822672	 -0.7074	 0.0
 5	 1	 1	 0.0	 4.901010965096896	 0.0	 0.0
 6	 1	 1	 -0.115	 6.12626370637112	 -0.7074	 0.0
 7	 1	 1	 0.0	 7.351516447645344	 0.0	 0.0
 8	 1	 1	 -0.115	 8.576769188919569	 -0.7074	 0.0
 9	 1	 3	 0.265	 9.802021930193792	 0.0	 0.0
 10	 1	 1	 -0.115	 11.027274671468016	 -0.7074	 0.0
 11	 1	 1	 0.0	 12.25252741274224	 0.0	 0.0
 12	 1	 1	 -0.115	 13.477780154016463	 -0.7074	 0.0
 13	 1	 1	 0.0	 14.703032895290686	 0.0	 0.0
 14	 1	 1	 -0.115	 15.928285636564912	 -0.7074	 0.0
 15	 1	 1	 0.0	 17.153538377839137	 0.0	 0.0
 16	 1	 1	 -0.115	 18.378791119113362	 -0.7074	 0.0
 17	 1	 1	 -0.115	 19.604043860387584	 0.0	 0.0
 18	 1	 1	 -0.115	 0.0	 1.4148	 0.0
 19	 1	 1	 0.0	 1.225252741274224	 2.1222000000000003	 0.0
 20	 1	 3	 0.265	 2.450505482548448	 1.4148	 0.0
 21	 1	 1	 0.0	 3.675758223822672	 2.1222000000000003	 0.0
 22	 1	 3	 0.265	 4.901010965096896	 1.4148	 0.0
 23	 1	 1	 0.0	 6.12626370637112	 2.1222000000000003	 0.0
 24	 1	 3	 0.265	 7.351516447645344	 1.4148	 0.0
 25	 1	 3	 0.265	 8.576769188919569	 2.1222000000000003	 0.0
 26	 1	 1	 0.0	 9.802021930193792	 1.4148	 0.0
 27	 1	 3	 0.265	 11.027274671468016	 2.1222000000000003	 0.0
 28	 1	 1	 0.0	 12.25252741274224	 1.4148	 0.0
 29	 1	 3	 0.265	 13.477780154016463	 2.1222000000000003	 0.0
 30	 1	 3	 0.265	 14.703032895290686	 1.4148	 0.0
 31	 1	 1	 0.0	 15.928285636564912	 2.1222000000000003	 0.0
 32	 1	 1	 0.0	 17.153538377839137	 1.4148	 0.0
 33	 1	 1	 0.0	 18.378791119113362	 2.1222000000000003	 0.0
 34	 1	 11	 0.15	 19.604043860387584	 1.4148	 0.0
 35	 1	 11	 0.15	 0.0	 4.244400000000001	 0.0
 36	 1	 1	 0.0	 1.225252741274224	 3.537000000000001	 0.0
 37	 1	 1	 0.0	 2.450505482548448	 4.244400000000001	 0.0
 38	 1	 3	 0.265	 3.675758223822672	 3.537000000000001	 0.0
 39	 1	 1	 0.0	 4.901010965096896	 4.244400000000001	 0.0
 40	 1	 3	 0.265	 6.12626370637112	 3.537000000000001	 0.0
 41	 1	 3	 0.265	 7.351516447645344	 4.244400000000001	 0.0
 42	 1	 3	 0.265	 8.576769188919569	 3.537000000000001	 0.0
 43	 1	 3	 0.265	 9.802021930193792	 4.244400000000001	 0.0
 44	 1	 3	 0.265	 11.027274671468016	 3.537000000000001	 0.0
 45	 1	 3	 0.265	 12.25252741274224	 4.244400000000001	 0.0
 46	 1	 3	 0.265	 13.477780154016463	 3.537000000000001	 0.0
 47	 1	 1	 0.0	 14.703032895290686	 4.244400000000001	 0.0
 48	 1	 1	 0.0	 15.928285636564912	 3.537000000000001	 0.0
 49	 1	 1	 0.0	 17.153538377839137	 4.244400000000001	 0.0
 50	 1	 1	 0.0	 18.378791119113362	 3.537000000000001	 0.0
 51	 1	 11	 0.15	 19.604043860387584	 4.244400000000001	 0.0
 52	 1	 11	 0.15	 0.0	 5.6592	 0.0
 53	 1	 1	 0.0	 1.225252741274224	 6.3666	 0.0
 54	 1	 3	 0.265	 2.450505482548448	 5.6592	 0.0
 55	 1	 1	 0.0	 3.675758223822672	 6.3666	 0.0
 56	 1	 3	 0.265	 4.901010965096896	 5.6592	 0.0
 57	 1	 1	 0.0	 6.12626370637112	 6.3666	 0.0
 58	 1	 3	 0.265	 7.351516447645344	 5.6592	 0.0
 59	 1	 1	 0.0	 8.576769188919569	 6.3666	 0.0
 60	 1	 3	 0.265	 9.802021930193792	 5.6592	 0.0
 61	 1	 3	 0.265	 11.027274671468016	 6.3666	 0.0
 62	 1	 3	 0.265	 12.25252741274224	 5.6592	 0.0
 63	 1	 1	 0.0	 13.477780154016463	 6.3666	 0.0
 64	 1	 1	 0.0	 14.703032895290686	 5.6592	 0.0
 65	 1	 1	 0.0	 15.928285636564912	 6.3666	 0.0
 66	 1	 1	 0.0	 17.153538377839137	 5.6592	 0.0
 67	 1	 1	 0.0	 18.378791119113362	 6.3666	 0.0
 68	 1	 1	 -0.115	 19.604043860387584	 5.6592	 0.0
 69	 1	 11	 0.15	 0.0	 8.488800000000001	 0.0
 70	 1	 1	 0.0	 1.225252741274224	 7.781400000000001	 0.0
 71	 1	 3	 0.265	 2.450505482548448	 8.488800000000001	 0.0
 72	 1	 3	 0.265	 3.675758223822672	 7.781400000000001	 0.0
 73	 1	 3	 0.265	 4.901010965096896	 8.488800000000001	 0.0
 74	 1	 3	 0.265	 6.12626370637112	 7.781400000000001	 0.0
 75	 1	 3	 0.265	 7.351516447645344	 8.488800000000001	 0.0
 76	 1	 3	 0.265	 8.576769188919569	 7.781400000000001	 0.0
 77	 1	 1	 0.0	 9.802021930193792	 8.488800000000001	 0.0
 78	 1	 3	 0.265	 11.027274671468016	 7.781400000000001	 0.0
 79	 1	 1	 0.0	 12.25252741274224	 8.488800000000001	 0.0
 80	 1	 3	 0.265	 13.477780154016463	 7.781400000000001	 0.0
 81	 1	 1	 0.0	 14.703032895290686	 8.488800000000001	 0.0
 82	 1	 1	 0.0	 15.928285636564912	 7.781400000000001	 0.0
 83	 1	 1	 0.0	 17.153538377839137	 8.488800000000001	 0.0
 84	 1	 1	 0.0	 18.378791119113362	 7.781400000000001	 0.0
 85	 1	 11	 0.15	 19.604043860387584	 8.488800000000001	 0.0
 86	 1	 1	 -0.115	 0.0	 9.9036	 0.0
 87	 1	 1	 0.0	 1.225252741274224	 10.611	 0.0
 88	 1	 3	 0.265	 2.450505482548448	 9.9036	 0.0
 89	 1	 3	 0.265	 3.675758223822672	 10.611	 0.0
 90	 1	 3	 0.265	 4.901010965096896	 9.9036	 0.0
 91	 1	 1	 0.0	 6.12626370637112	 10.611	 0.0
 92	 1	 3	 0.265	 7.351516447645344	 9.9036	 0.0
 93	 1	 3	 0.265	 8.576769188919569	 10.611	 0.0
 94	 1	 3	 0.265	 9.802021930193792	 9.9036	 0.0
 95	 1	 3	 0.265	 11.027274671468016	 10.611	 0.0
 96	 1	 3	 0.265	 12.25252741274224	 9.9036	 0.0
 97	 1	 1	 0.0	 13.477780154016463	 10.611	 0.0
 98	 1	 1	 0.0	 14.703032895290686	 9.9036	 0.0
 99	 1	 1	 0.0	 15.928285636564912	 10.611	 0.0
 100	 1	 1	 0.0	 17.153538377839137	 9.9036	 0.0
 101	 1	 1	 0.0	 18.378791119113362	 10.611	 0.0
 102	 1	 1	 -0.115	 19.604043860387584	 9.9036	 0.0
 103	 1	 1	 -0.115	 0.0	 12.733200000000002	 0.0
 104	 1	 1	 0.0	 1.225252741274224	 12.025800000000002	 0.0
 105	 1	 1	 0.0	 2.450505482548448	 12.733200000000002	 0.0
 106	 1	 3	 0.265	 3.675758223822672	 12.025800000000002	 0.0
 107	 1	 3	 0.265	 4.901010965096896	 12.733200000000002	 0.0
 108	 1	 1	 0.0	 6.12626370637112	 12.025800000000002	 0.0
 109	 1	 1	 0.0	 7.351516447645344	 12.733200000000002	 0.0
 110	 1	 1	 0.0	 8.576769188919569	 12.025800000000002	 0.0
 111	 1	 3	 0.265	 9.802021930193792	 12.733200000000002	 0.0
 112	 1	 3	 0.265	 11.027274671468016	 12.025800000000002	 0.0
 113	 1	 3	 0.265	 12.25252741274224	 12.733200000000002	 0.0
 114	 1	 1	 0.0	 13.477780154016463	 12.025800000000002	 0.0
 115	 1	 1	 0.0	 14.703032895290686	 12.733200000000002	 0.0
 116	 1	 1	 0.0	 15.928285636564912	 12.025800000000002	 0.0
 117	 1	 1	 0.0	 17.153538377839137	 12.733200000000002	 0.0
 118	 1	 1	 0.0	 18.378791119113362	 12.025800000000002	 0.0
 119	 1	 1	 -0.115	 19.604043860387584	 12.733200000000002	 0.0
 120	 1	 1	 -0.115	 0.0	 14.148	 0.0
 121	 1	 1	 0.0	 1.225252741274224	 14.8554	 0.0
 122	 1	 1	 0.0	 2.450505482548448	 14.148	 0.0
 123	 1	 1	 0.0	 3.675758223822672	 14.8554	 0.0
 124	 1	 1	 0.0	 4.901010965096896	 14.148	 0.0
 125	 1	 1	 0.0	 6.12626370637112	 14.8554	 0.0
 126	 1	 1	 0.0	 7.351516447645344	 14.148	 0.0
 127	 1	 1	 0.0	 8.576769188919569	 14.8554	 0.0
 128	 1	 1	 0.0	 9.802021930193792	 14.148	 0.0
 129	 1	 3	 0.265	 11.027274671468016	 14.8554	 0.0
 130	 1	 1	 0.0	 12.25252741274224	 14.148	 0.0
 131	 1	 1	 0.0	 13.477780154016463	 14.8554	 0.0
 132	 1	 1	 0.0	 14.703032895290686	 14.148	 0.0
 133	 1	 1	 0.0	 15.928285636564912	 14.8554	 0.0
 134	 1	 1	 0.0	 17.153538377839137	 14.148	 0.0
 135	 1	 1	 0.0	 18.378791119113362	 14.8554	 0.0
 136	 1	 1	 -0.115	 19.604043860387584	 14.148	 0.0
 137	 1	 11	 0.15	 0.0	 16.977600000000002	 0.0
 138	 1	 1	 0.0	 1.225252741274224	 16.270200000000003	 0.0
 139	 1	 1	 0.0	 2.450505482548448	 16.977600000000002	 0.0
 140	 1	 1	 0.0	 3.675758223822672	 16.270200000000003	 0.0
 141	 1	 1	 0.0	 4.901010965096896	 16.977600000000002	 0.0
 142	 1	 1	 0.0	 6.12626370637112	 16.270200000000003	 0.0
 143	 1	 1	 0.0	 7.351516447645344	 16.977600000000002	 0.0
 144	 1	 3	 0.265	 8.576769188919569	 16.270200000000003	 0.0
 145	 1	 3	 0.265	 9.802021930193792	 16.977600000000002	 0.0
 146	 1	 1	 0.0	 11.027274671468016	 16.270200000000003	 0.0
 147	 1	 1	 0.0	 12.25252741274224	 16.977600000000002	 0.0
 148	 1	 1	 0.0	 13.477780154016463	 16.270200000000003	 0.0
 149	 1	 1	 0.0	 14.703032895290686	 16.977600000000002	 0.0
 150	 1	 1	 0.0	 15.928285636564912	 16.270200000000003	 0.0
 151	 1	 1	 0.0	 17.153538377839137	 16.977600000000002	 0.0
 152	 1	 1	 0.0	 18.378791119113362	 16.270200000000003	 0.0
 153	 1	 1	 -0.115	 19.604043860387584	 16.977600000000002	 0.0
 154	 1	 1	 -0.115	 0.0	 18.392400000000002	 0.0
 155	 1	 11	 0.15	 1.225252741274224	 19.099800000000002	 0.0
 156	 1	 1	 0.0	 2.450505482548448	 18.392400000000002	 0.0
 157	 1	 1	 -0.115	 3.675758223822672	 19.099800000000002	 0.0
 158	 1	 1	 0.0	 4.901010965096896	 18.392400000000002	 0.0
 159	 1	 1	 -0.115	 6.12626370637112	 19.099800000000002	 0.0
 160	 1	 1	 0.0	 7.351516447645344	 18.392400000000002	 0.0
 161	 1	 11	 0.15	 8.576769188919569	 19.099800000000002	 0.0
 162	 1	 1	 0.0	 9.802021930193792	 18.392400000000002	 0.0
 163	 1	 1	 -0.115	 11.027274671468016	 19.099800000000002	 0.0
 164	 1	 1	 0.0	 12.25252741274224	 18.392400000000002	 0.0
 165	 1	 1	 -0.115	 13.477780154016463	 19.099800000000002	 0.0
 166	 1	 1	 0.0	 14.703032895290686	 18.392400000000002	 0.0
 167	 1	 11	 0.15	 15.928285636564912	 19.099800000000002	 0.0
 168	 1	 1	 0.0	 17.153538377839137	 18.392400000000002	 0.0
 169	 1	 1	 -0.115	 18.378791119113362	 19.099800000000002	 0.0
 170	 1	 1	 -0.115	 19.604043860387584	 18.392400000000002	 0.0
 171	 1	 2	 0.115	 1.225252741274224	 -1.7844	 0.0
 172	 1	 2	 0.115	 3.675758223822672	 -1.7844	 0.0
 173	 1	 2	 0.115	 6.12626370637112	 -1.7844	 0.0
 174	 1	 2	 0.115	 8.576769188919569	 -1.7844	 0.0
 175	 1	 2	 0.115	 11.027274671468016	 -1.7844	 0.0
 176	 1	 2	 0.115	 13.477780154016463	 -1.7844	 0.0
 177	 1	 2	 0.115	 15.928285636564912	 -1.7844	 0.0
 178	 1	 2	 0.115	 18.378791119113362	 -1.7844	 0.0
 179	 1	 7	 -0.585	 1.225252741274224	 20.4998	 0.0
 180	 1	 2	 0.115	 3.675758223822672	 20.1768	 0.0
 181	 1	 2	 0.115	 6.12626370637112	 20.1768	 0.0
 182	 1	 7	 -0.585	 8.576769188919569	 20.4998	 0.0
 183	 1	 2	 0.115	 11.027274671468016	 20.1768	 0.0
 184	 1	 2	 0.115	 13.477780154016463	 20.1768	 0.0
 185	 1	 7	 -0.585	 15.928285636564912	 20.4998	 0.0
 186	 1	 2	 0.115	 18.378791119113362	 20.1768	 0.0
 187	 1	 7	 -0.585	 -1.2124355652982142	 -0.7	 0.0
 188	 1	 2	 0.115	 -0.9327093598758405	 1.9533	 0.0
 189	 1	 2	 0.115	 20.536753220263424	 -0.5385	 0.0
 190	 1	 7	 -0.585	 20.8164794256858	 2.1148000000000002	 0.0
 191	 1	 7	 -0.585	 -1.2124355652982142	 3.5444000000000004	 0.0
 192	 1	 7	 -0.585	 -1.2124355652982142	 6.3592	 0.0
 193	 1	 7	 -0.585	 20.8164794256858	 3.5444000000000004	 0.0
 194	 1	 2	 0.115	 20.536753220263424	 6.1977	 0.0
 195	 1	 7	 -0.585	 -1.2124355652982142	 7.788800000000001	 0.0
 196	 1	 2	 0.115	 -0.9327093598758405	 10.4421	 0.0
 197	 1	 7	 -0.585	 20.8164794256858	 7.788800000000001	 0.0
 198	 1	 2	 0.115	 20.536753220263424	 10.4421	 0.0
 199	 1	 2	 0.115	 -0.9327093598758405	 12.194700000000001	 0.0
 200	 1	 2	 0.115	 -0.9327093598758405	 14.686499999999999	 0.0
 201	 1	 2	 0.115	 20.536753220263424	 12.194700000000001	 0.0
 202	 1	 2	 0.115	 20.536753220263424	 14.686499999999999	 0.0
 203	 1	 7	 -0.585	 -1.2124355652982146	 16.277600000000003	 0.0
 204	 1	 2	 0.115	 -0.9327093598758405	 18.9309	 0.0
 205	 1	 2	 0.115	 20.536753220263424	 16.439100000000003	 0.0
 206	 1	 2	 0.115	 20.536753220263424	 18.9309	 0.0
 207	 1	 5	 0.435	 1.225252741274224	 21.1998	 -0.7
 208	 1	 5	 0.435	 8.576769188919569	 21.1998	 -0.7
 209	 1	 5	 0.435	 15.928285636564912	 21.1998	 0.7
 210	 1	 5	 0.435	 -1.8186533479473213	 -1.0499999999999998	 -0.7
 211	 1	 5	 0.435	 21.422697208334906	 2.4648000000000003	 -0.7
 212	 1	 5	 0.435	 -1.8186533479473213	 3.1944000000000004	 0.7
 213	 1	 5	 0.435	 -1.8186533479473213	 6.7092	 0.7
 214	 1	 5	 0.435	 21.422697208334906	 3.1944000000000004	 -0.7
 215	 1	 5	 0.435	 -1.8186533479473213	 7.438800000000001	 -0.7
 216	 1	 5	 0.435	 21.422697208334906	 7.438800000000001	 0.7
 217	 1	 5	 0.435	 -1.818653347947322	 15.927600000000004	 -0.7
 218	 1	 4	 -0.683	 8.576769188919569	 3.537000000000001	 1.4
 219	 1	 5	 0.418	 8.576769188919569	 3.537000000000001	 2.4
 220	 1	 4	 -0.683	 9.802021930193792	 4.244400000000001	 -1.4
 221	 1	 5	 0.418	 9.802021930193792	 4.244400000000001	 -2.4
 222	 1	 4	 -0.683	 11.027274671468016	 2.1222000000000003	 1.4
 223	 1	 5	 0.418	 11.027274671468016	 2.1222000000000003	 2.4
 224	 1	 4	 -0.683	 11.027274671468016	 3.537000000000001	 -1.4
 225	 1	 5	 0.418	 11.027274671468016	 3.537000000000001	 -2.4
 226	 1	 4	 -0.683	 13.477780154016463	 3.537000000000001	 1.4
 227	 1	 5	 0.418	 13.477780154016463	 3.537000000000001	 2.4
 228	 1	 4	 -0.683	 8.576769188919569	 2.1222000000000003	 -1.4
 229	 1	 5	 0.418	 8.576769188919569	 2.1222000000000003	 -2.4
 230	 1	 4	 -0.683	 9.802021930193792	 0.0	 1.4
 231	 1	 5	 0.418	 9.802021930193792	 0.0	 2.4
 232	 1	 4	 -0.683	 12.25252741274224	 4.244400000000001	 -1.4
 233	 1	 5	 0.418	 12.25252741274224	 4.244400000000001	 -2.4
 234	 1	 4	 -0.683	 13.477780154016463	 2.1222000000000003	 1.4
 235	 1	 5	 0.418	 13.477780154016463	 2.1222000000000003	 2.4
 236	 1	 4	 -0.683	 9.802021930193792	 5.6592	 1.4
 237	 1	 5	 0.418	 9.802021930193792	 5.6592	 2.4
 238	 1	 4	 -0.683	 8.576769188919569	 7.781400000000001	 -1.4
 239	 1	 5	 0.418	 8.576769188919569	 7.781400000000001	 -2.4
 240	 1	 4	 -0.683	 7.351516447645344	 4.244400000000001	 -1.4
 241	 1	 5	 0.418	 7.351516447645344	 4.244400000000001	 -2.4
 242	 1	 4	 -0.683	 14.703032895290686	 1.4148	 -1.4
 243	 1	 5	 0.418	 14.703032895290686	 1.4148	 -2.4
 244	 1	 4	 -0.683	 7.351516447645344	 1.4148	 1.4
 245	 1	 5	 0.418	 7.351516447645344	 1.4148	 2.4
 246	 1	 4	 -0.683	 7.351516447645344	 9.9036	 1.4
 247	 1	 5	 0.418	 7.351516447645344	 9.9036	 2.4
 248	 1	 4	 -0.683	 7.351516447645344	 8.488800000000001	 -1.4
 249	 1	 5	 0.418	 7.351516447645344	 8.488800000000001	 -2.4
 250	 1	 4	 -0.683	 6.12626370637112	 3.537000000000001	 -1.4
 251	 1	 5	 0.418	 6.12626370637112	 3.537000000000001	 -2.4
 252	 1	 4	 -0.683	 4.901010965096896	 9.9036	 -1.4
 253	 1	 5	 0.418	 4.901010965096896	 9.9036	 -2.4
 254	 1	 4	 -0.683	 7.351516447645344	 5.6592	 1.4
 255	 1	 5	 0.418	 7.351516447645344	 5.6592	 2.4
 256	 1	 4	 -0.683	 3.675758223822672	 12.025800000000002	 1.4
 257	 1	 5	 0.418	 3.675758223822672	 12.025800000000002	 2.4
 258	 1	 4	 -0.683	 3.675758223822672	 10.611	 -1.4
 259	 1	 5	 0.418	 3.675758223822672	 10.611	 -2.4
 260	 1	 4	 -0.683	 4.901010965096896	 1.4148	 1.4
 261	 1	 5	 0.418	 4.901010965096896	 1.4148	 2.4
 262	 1	 4	 -0.683	 4.901010965096896	 8.488800000000001	 1.4
 263	 1	 5	 0.418	 4.901010965096896	 8.488800000000001	 2.4
 264	 1	 4	 -0.683	 2.450505482548448	 1.4148	 -1.4
 265	 1	 5	 0.418	 2.450505482548448	 1.4148	 -2.4
 266	 1	 4	 -0.683	 9.802021930193792	 9.9036	 -1.4
 267	 1	 5	 0.418	 9.802021930193792	 9.9036	 -2.4
 268	 1	 4	 -0.683	 11.027274671468016	 12.025800000000002	 1.4
 269	 1	 5	 0.418	 11.027274671468016	 12.025800000000002	 2.4
 270	 1	 4	 -0.683	 2.450505482548448	 8.488800000000001	 -1.4
 271	 1	 5	 0.418	 2.450505482548448	 8.488800000000001	 -2.4
 272	 1	 4	 -0.683	 11.027274671468016	 10.611	 -1.4
 273	 1	 5	 0.418	 11.027274671468016	 10.611	 -2.4
 274	 1	 4	 -0.683	 3.675758223822672	 7.781400000000001	 1.4
 275	 1	 5	 0.418	 3.675758223822672	 7.781400000000001	 2.4
 276	 1	 4	 -0.683	 3.675758223822672	 3.537000000000001	 -1.4
 277	 1	 5	 0.418	 3.675758223822672	 3.537000000000001	 -2.4
 278	 1	 4	 -0.683	 11.027274671468016	 6.3666	 1.4
 279	 1	 5	 0.418	 11.027274671468016	 6.3666	 2.4
 280	 1	 4	 -0.683	 8.576769188919569	 10.611	 -1.4
 281	 1	 5	 0.418	 8.576769188919569	 10.611	 -2.4
 282	 1	 4	 -0.683	 2.450505482548448	 5.6592	 -1.4
 283	 1	 5	 0.418	 2.450505482548448	 5.6592	 -2.4
 284	 1	 4	 -0.683	 6.12626370637112	 7.781400000000001	 -1.4
 285	 1	 5	 0.418	 6.12626370637112	 7.781400000000001	 -2.4
 286	 1	 4	 -0.683	 11.027274671468016	 14.8554	 -1.4
 287	 1	 5	 0.418	 11.027274671468016	 14.8554	 -2.4
 288	 1	 4	 -0.683	 12.25252741274224	 12.733200000000002	 1.4
 289	 1	 5	 0.418	 12.25252741274224	 12.733200000000002	 2.4
 290	 1	 4	 -0.683	 4.901010965096896	 5.6592	 1.4
 291	 1	 5	 0.418	 4.901010965096896	 5.6592	 2.4
 292	 1	 4	 -0.683	 4.901010965096896	 12.733200000000002	 -1.4
 293	 1	 5	 0.418	 4.901010965096896	 12.733200000000002	 -2.4
 294	 1	 4	 -0.683	 2.450505482548448	 9.9036	 1.4
 295	 1	 5	 0.418	 2.450505482548448	 9.9036	 2.4
 296	 1	 4	 -0.683	 9.802021930193792	 16.977600000000002	 1.4
 297	 1	 5	 0.418	 9.802021930193792	 16.977600000000002	 2.4
 298	 1	 4	 -0.683	 9.802021930193792	 12.733200000000002	 1.4
 299	 1	 5	 0.418	 9.802021930193792	 12.733200000000002	 2.4
 300	 1	 4	 -0.683	 12.25252741274224	 9.9036	 1.4
 301	 1	 5	 0.418	 12.25252741274224	 9.9036	 2.4
 302	 1	 4	 -0.683	 11.027274671468016	 7.781400000000001	 -1.4
 303	 1	 5	 0.418	 11.027274671468016	 7.781400000000001	 -2.4
 304	 1	 4	 -0.683	 13.477780154016463	 7.781400000000001	 -1.4
 305	 1	 5	 0.418	 13.477780154016463	 7.781400000000001	 -2.4
 306	 1	 4	 -0.683	 12.25252741274224	 5.6592	 1.4
 307	 1	 5	 0.418	 12.25252741274224	 5.6592	 2.4
 308	 1	 4	 -0.683	 8.576769188919569	 16.270200000000003	 -1.4
 309	 1	 5	 0.418	 8.576769188919569	 16.270200000000003	 -2.4
 
 Bonds 
 
1	 1	 1	 2
2	 2	 2	 3
3	 2	 3	 4
4	 2	 4	 5
5	 2	 5	 6
6	 2	 6	 7
7	 2	 7	 8
8	 3	 8	 9
9	 3	 9	 10
10	 2	 10	 11
11	 2	 11	 12
12	 2	 12	 13
13	 2	 13	 14
14	 2	 14	 15
15	 2	 15	 16
16	 2	 16	 17
17	 2	 18	 19
18	 3	 19	 20
19	 3	 20	 21
20	 3	 21	 22
21	 3	 22	 23
22	 3	 23	 24
23	 4	 24	 25
24	 3	 25	 26
25	 3	 26	 27
26	 3	 27	 28
27	 3	 28	 29
28	 4	 29	 30
29	 3	 30	 31
30	 2	 31	 32
31	 2	 32	 33
32	 1	 33	 34
33	 1	 35	 36
34	 2	 36	 37
35	 3	 37	 38
36	 3	 38	 39
37	 3	 39	 40
38	 4	 40	 41
39	 4	 41	 42
40	 4	 42	 43
41	 4	 43	 44
42	 4	 44	 45
43	 4	 45	 46
44	 3	 46	 47
45	 2	 47	 48
46	 2	 48	 49
47	 2	 49	 50
48	 1	 50	 51
49	 1	 52	 53
50	 3	 53	 54
51	 3	 54	 55
52	 3	 55	 56
53	 3	 56	 57
54	 3	 57	 58
55	 3	 58	 59
56	 3	 59	 60
57	 4	 60	 61
58	 4	 61	 62
59	 3	 62	 63
60	 2	 63	 64
61	 2	 64	 65
62	 2	 65	 66
63	 2	 66	 67
64	 2	 67	 68
65	 1	 69	 70
66	 3	 70	 71
67	 4	 71	 72
68	 4	 72	 73
69	 4	 73	 74
70	 4	 74	 75
71	 4	 75	 76
72	 3	 76	 77
73	 3	 77	 78
74	 3	 78	 79
75	 3	 79	 80
76	 3	 80	 81
77	 2	 81	 82
78	 2	 82	 83
79	 2	 83	 84
80	 1	 84	 85
81	 2	 86	 87
82	 3	 87	 88
83	 4	 88	 89
84	 4	 89	 90
85	 3	 90	 91
86	 3	 91	 92
87	 4	 92	 93
88	 4	 93	 94
89	 4	 94	 95
90	 4	 95	 96
91	 3	 96	 97
92	 2	 97	 98
93	 2	 98	 99
94	 2	 99	 100
95	 2	 100	 101
96	 2	 101	 102
97	 2	 103	 104
98	 2	 104	 105
99	 3	 105	 106
100	 4	 106	 107
101	 3	 107	 108
102	 2	 108	 109
103	 2	 109	 110
104	 3	 110	 111
105	 4	 111	 112
106	 4	 112	 113
107	 3	 113	 114
108	 2	 114	 115
109	 2	 115	 116
110	 2	 116	 117
111	 2	 117	 118
112	 2	 118	 119
113	 2	 120	 121
114	 2	 121	 122
115	 2	 122	 123
116	 2	 123	 124
117	 2	 124	 125
118	 2	 125	 126
119	 2	 126	 127
120	 2	 127	 128
121	 3	 128	 129
122	 3	 129	 130
123	 2	 130	 131
124	 2	 131	 132
125	 2	 132	 133
126	 2	 133	 134
127	 2	 134	 135
128	 2	 135	 136
129	 1	 137	 138
130	 2	 138	 139
131	 2	 139	 140
132	 2	 140	 141
133	 2	 141	 142
134	 2	 142	 143
135	 3	 143	 144
136	 4	 144	 145
137	 3	 145	 146
138	 2	 146	 147
139	 2	 147	 148
140	 2	 148	 149
141	 2	 149	 150
142	 2	 150	 151
143	 2	 151	 152
144	 2	 152	 153
145	 1	 154	 155
146	 1	 155	 156
147	 2	 156	 157
148	 2	 157	 158
149	 2	 158	 159
150	 2	 159	 160
151	 1	 160	 161
152	 1	 161	 162
153	 2	 162	 163
154	 2	 163	 164
155	 2	 164	 165
156	 2	 165	 166
157	 1	 166	 167
158	 1	 167	 168
159	 2	 168	 169
160	 2	 169	 170
161	 1	 1	 18
162	 3	 3	 20
163	 3	 5	 22
164	 3	 7	 24
165	 3	 9	 26
166	 2	 11	 28
167	 3	 13	 30
168	 2	 15	 32
169	 1	 17	 34
170	 2	 19	 36
171	 3	 21	 38
172	 3	 23	 40
173	 4	 25	 42
174	 4	 27	 44
175	 4	 29	 46
176	 2	 31	 48
177	 2	 33	 50
178	 5	 35	 52
179	 3	 37	 54
180	 3	 39	 56
181	 4	 41	 58
182	 4	 43	 60
183	 4	 45	 62
184	 2	 47	 64
185	 2	 49	 66
186	 1	 51	 68
187	 2	 53	 70
188	 3	 55	 72
189	 3	 57	 74
190	 3	 59	 76
191	 4	 61	 78
192	 3	 63	 80
193	 2	 65	 82
194	 2	 67	 84
195	 1	 69	 86
196	 4	 71	 88
197	 4	 73	 90
198	 4	 75	 92
199	 3	 77	 94
200	 3	 79	 96
201	 2	 81	 98
202	 2	 83	 100
203	 1	 85	 102
204	 2	 87	 104
205	 4	 89	 106
206	 2	 91	 108
207	 3	 93	 110
208	 4	 95	 112
209	 2	 97	 114
210	 2	 99	 116
211	 2	 101	 118
212	 2	 103	 120
213	 2	 105	 122
214	 3	 107	 124
215	 2	 109	 126
216	 3	 111	 128
217	 3	 113	 130
218	 2	 115	 132
219	 2	 117	 134
220	 2	 119	 136
221	 2	 121	 138
222	 2	 123	 140
223	 2	 125	 142
224	 3	 127	 144
225	 3	 129	 146
226	 2	 131	 148
227	 2	 133	 150
228	 2	 135	 152
229	 1	 137	 154
230	 2	 139	 156
231	 2	 141	 158
232	 2	 143	 160
233	 3	 145	 162
234	 2	 147	 164
235	 2	 149	 166
236	 2	 151	 168
237	 2	 153	 170
238	 6	 2	 171
239	 6	 4	 172
240	 6	 6	 173
241	 6	 8	 174
242	 6	 10	 175
243	 6	 12	 176
244	 6	 14	 177
245	 6	 16	 178
246	 7	 155	 179
247	 6	 157	 180
248	 6	 159	 181
249	 7	 161	 182
250	 6	 163	 183
251	 6	 165	 184
252	 7	 167	 185
253	 6	 169	 186
254	 7	 1	 187
255	 6	 18	 188
256	 6	 17	 189
257	 7	 34	 190
258	 7	 35	 191
259	 7	 52	 192
260	 7	 51	 193
261	 6	 68	 194
262	 7	 69	 195
263	 6	 86	 196
264	 7	 85	 197
265	 6	 102	 198
266	 6	 103	 199
267	 6	 120	 200
268	 6	 119	 201
269	 6	 136	 202
270	 7	 137	 203
271	 6	 154	 204
272	 6	 153	 205
273	 6	 170	 206
274	 8	 179	 207
275	 8	 182	 208
276	 8	 185	 209
277	 8	 187	 210
278	 8	 190	 211
279	 8	 191	 212
280	 8	 192	 213
281	 8	 193	 214
282	 8	 195	 215
283	 8	 197	 216
284	 8	 203	 217
285	 9	 42	 218
286	 10	 218	 219
287	 9	 43	 220
288	 10	 220	 221
289	 9	 27	 222
290	 10	 222	 223
291	 9	 44	 224
292	 10	 224	 225
293	 9	 46	 226
294	 10	 226	 227
295	 9	 25	 228
296	 10	 228	 229
297	 9	 9	 230
298	 10	 230	 231
299	 9	 45	 232
300	 10	 232	 233
301	 9	 29	 234
302	 10	 234	 235
303	 9	 60	 236
304	 10	 236	 237
305	 9	 76	 238
306	 10	 238	 239
307	 9	 41	 240
308	 10	 240	 241
309	 9	 30	 242
310	 10	 242	 243
311	 9	 24	 244
312	 10	 244	 245
313	 9	 92	 246
314	 10	 246	 247
315	 9	 75	 248
316	 10	 248	 249
317	 9	 40	 250
318	 10	 250	 251
319	 9	 90	 252
320	 10	 252	 253
321	 9	 58	 254
322	 10	 254	 255
323	 9	 106	 256
324	 10	 256	 257
325	 9	 89	 258
326	 10	 258	 259
327	 9	 22	 260
328	 10	 260	 261
329	 9	 73	 262
330	 10	 262	 263
331	 9	 20	 264
332	 10	 264	 265
333	 9	 94	 266
334	 10	 266	 267
335	 9	 112	 268
336	 10	 268	 269
337	 9	 71	 270
338	 10	 270	 271
339	 9	 95	 272
340	 10	 272	 273
341	 9	 72	 274
342	 10	 274	 275
343	 9	 38	 276
344	 10	 276	 277
345	 9	 61	 278
346	 10	 278	 279
347	 9	 93	 280
348	 10	 280	 281
349	 9	 54	 282
350	 10	 282	 283
351	 9	 74	 284
352	 10	 284	 285
353	 9	 129	 286
354	 10	 286	 287
355	 9	 113	 288
356	 10	 288	 289
357	 9	 56	 290
358	 10	 290	 291
359	 9	 107	 292
360	 10	 292	 293
361	 9	 88	 294
362	 10	 294	 295
363	 9	 145	 296
364	 10	 296	 297
365	 9	 111	 298
366	 10	 298	 299
367	 9	 96	 300
368	 10	 300	 301
369	 9	 78	 302
370	 10	 302	 303
371	 9	 80	 304
372	 10	 304	 305
373	 9	 62	 306
374	 10	 306	 307
375	 9	 144	 308
376	 10	 308	 309

 Angles 
 
1	 1	 2	 1	 187
2	 2	 2	 1	 18
3	 1	 187	 1	 18
4	 3	 1	 2	 3
5	 4	 1	 2	 171
6	 5	 3	 2	 171
7	 6	 20	 3	 2
8	 6	 20	 3	 4
9	 7	 2	 3	 4
10	 5	 3	 4	 172
11	 7	 3	 4	 5
12	 5	 172	 4	 5
13	 7	 4	 5	 6
14	 6	 4	 5	 22
15	 6	 6	 5	 22
16	 5	 173	 6	 5
17	 5	 173	 6	 7
18	 7	 5	 6	 7
19	 6	 24	 7	 6
20	 6	 24	 7	 8
21	 7	 6	 7	 8
22	 8	 9	 8	 174
23	 6	 9	 8	 7
24	 5	 174	 8	 7
25	 9	 10	 9	 26
26	 10	 10	 9	 230
27	 9	 10	 9	 8
28	 10	 26	 9	 230
29	 9	 26	 9	 8
30	 10	 230	 9	 8
31	 6	 9	 10	 11
32	 8	 9	 10	 175
33	 5	 11	 10	 175
34	 7	 28	 11	 10
35	 7	 28	 11	 12
36	 7	 10	 11	 12
37	 7	 11	 12	 13
38	 5	 11	 12	 176
39	 5	 13	 12	 176
40	 7	 12	 13	 14
41	 6	 12	 13	 30
42	 6	 14	 13	 30
43	 5	 177	 14	 13
44	 5	 177	 14	 15
45	 7	 13	 14	 15
46	 7	 32	 15	 14
47	 7	 32	 15	 16
48	 7	 14	 15	 16
49	 5	 17	 16	 178
50	 7	 17	 16	 15
51	 5	 178	 16	 15
52	 4	 34	 17	 189
53	 3	 34	 17	 16
54	 5	 189	 17	 16
55	 3	 1	 18	 19
56	 4	 1	 18	 188
57	 5	 19	 18	 188
58	 6	 18	 19	 20
59	 7	 18	 19	 36
60	 6	 20	 19	 36
61	 9	 19	 20	 21
62	 9	 19	 20	 3
63	 10	 19	 20	 264
64	 9	 21	 20	 3
65	 10	 21	 20	 264
66	 10	 3	 20	 264
67	 11	 20	 21	 22
68	 11	 20	 21	 38
69	 11	 22	 21	 38
70	 10	 5	 22	 260
71	 9	 5	 22	 21
72	 9	 5	 22	 23
73	 10	 260	 22	 21
74	 10	 260	 22	 23
75	 9	 21	 22	 23
76	 11	 40	 23	 22
77	 11	 40	 23	 24
78	 11	 22	 23	 24
79	 12	 25	 24	 244
80	 13	 25	 24	 7
81	 13	 25	 24	 23
82	 10	 244	 24	 7
83	 10	 244	 24	 23
84	 9	 7	 24	 23
85	 10	 26	 25	 228
86	 13	 26	 25	 42
87	 13	 26	 25	 24
88	 12	 228	 25	 42
89	 12	 228	 25	 24
90	 14	 42	 25	 24
91	 11	 25	 26	 9
92	 11	 25	 26	 27
93	 11	 9	 26	 27
94	 9	 26	 27	 28
95	 10	 26	 27	 222
96	 13	 26	 27	 44
97	 10	 28	 27	 222
98	 13	 28	 27	 44
99	 12	 222	 27	 44
100	 11	 27	 28	 29
101	 6	 27	 28	 11
102	 6	 29	 28	 11
103	 10	 234	 29	 28
104	 12	 234	 29	 30
105	 12	 234	 29	 46
106	 13	 28	 29	 30
107	 13	 28	 29	 46
108	 14	 30	 29	 46
109	 13	 13	 30	 29
110	 9	 13	 30	 31
111	 10	 13	 30	 242
112	 13	 29	 30	 31
113	 12	 29	 30	 242
114	 10	 31	 30	 242
115	 6	 48	 31	 30
116	 7	 48	 31	 32
117	 6	 30	 31	 32
118	 7	 33	 32	 15
119	 7	 33	 32	 31
120	 7	 15	 32	 31
121	 3	 34	 33	 50
122	 3	 34	 33	 32
123	 7	 50	 33	 32
124	 2	 33	 34	 17
125	 1	 33	 34	 190
126	 1	 17	 34	 190
127	 15	 52	 35	 36
128	 16	 52	 35	 191
129	 1	 36	 35	 191
130	 3	 35	 36	 37
131	 3	 35	 36	 19
132	 7	 37	 36	 19
133	 6	 36	 37	 38
134	 6	 36	 37	 54
135	 11	 38	 37	 54
136	 10	 21	 38	 276
137	 9	 21	 38	 37
138	 9	 21	 38	 39
139	 10	 276	 38	 37
140	 10	 276	 38	 39
141	 9	 37	 38	 39
142	 11	 56	 39	 38
143	 11	 56	 39	 40
144	 11	 38	 39	 40
145	 12	 41	 40	 250
146	 13	 41	 40	 23
147	 13	 41	 40	 39
148	 10	 250	 40	 23
149	 10	 250	 40	 39
150	 9	 23	 40	 39
151	 12	 42	 41	 240
152	 14	 42	 41	 58
153	 14	 42	 41	 40
154	 12	 240	 41	 58
155	 12	 240	 41	 40
156	 14	 58	 41	 40
157	 14	 41	 42	 25
158	 14	 41	 42	 43
159	 12	 41	 42	 218
160	 14	 25	 42	 43
161	 12	 25	 42	 218
162	 12	 43	 42	 218
163	 14	 42	 43	 44
164	 14	 42	 43	 60
165	 12	 42	 43	 220
166	 14	 44	 43	 60
167	 12	 44	 43	 220
168	 12	 60	 43	 220
169	 14	 43	 44	 45
170	 14	 43	 44	 27
171	 12	 43	 44	 224
172	 14	 45	 44	 27
173	 12	 45	 44	 224
174	 12	 27	 44	 224
175	 12	 44	 45	 232
176	 14	 44	 45	 46
177	 14	 44	 45	 62
178	 12	 232	 45	 46
179	 12	 232	 45	 62
180	 14	 46	 45	 62
181	 14	 29	 46	 45
182	 13	 29	 46	 47
183	 12	 29	 46	 226
184	 13	 45	 46	 47
185	 12	 45	 46	 226
186	 10	 47	 46	 226
187	 6	 64	 47	 46
188	 7	 64	 47	 48
189	 6	 46	 47	 48
190	 7	 49	 48	 31
191	 7	 49	 48	 47
192	 7	 31	 48	 47
193	 7	 50	 49	 66
194	 7	 50	 49	 48
195	 7	 66	 49	 48
196	 7	 49	 50	 33
197	 3	 49	 50	 51
198	 3	 33	 50	 51
199	 1	 193	 51	 50
200	 1	 193	 51	 68
201	 2	 50	 51	 68
202	 15	 35	 52	 53
203	 16	 35	 52	 192
204	 1	 53	 52	 192
205	 17	 52	 53	 54
206	 3	 52	 53	 70
207	 6	 54	 53	 70
208	 9	 37	 54	 53
209	 9	 37	 54	 55
210	 10	 37	 54	 282
211	 9	 53	 54	 55
212	 10	 53	 54	 282
213	 10	 55	 54	 282
214	 11	 72	 55	 54
215	 11	 72	 55	 56
216	 11	 54	 55	 56
217	 10	 57	 56	 290
218	 9	 57	 56	 39
219	 9	 57	 56	 55
220	 10	 290	 56	 39
221	 10	 290	 56	 55
222	 9	 39	 56	 55
223	 11	 58	 57	 74
224	 11	 58	 57	 56
225	 11	 74	 57	 56
226	 13	 57	 58	 41
227	 9	 57	 58	 59
228	 10	 57	 58	 254
229	 13	 41	 58	 59
230	 12	 41	 58	 254
231	 10	 59	 58	 254
232	 11	 58	 59	 76
233	 11	 58	 59	 60
234	 11	 76	 59	 60
235	 10	 59	 60	 236
236	 13	 59	 60	 61
237	 13	 59	 60	 43
238	 12	 236	 60	 61
239	 12	 236	 60	 43
240	 14	 61	 60	 43
241	 12	 60	 61	 278
242	 14	 60	 61	 62
243	 14	 60	 61	 78
244	 12	 278	 61	 62
245	 12	 278	 61	 78
246	 14	 62	 61	 78