# GO
217 atoms 
284 bonds 
521 angles 
970 dihedrals 
170 impropers 

354 atom types 
6 bond types 
10 angle types 
19 dihedral types 
7 improper types 

0.0	122.0	 xlo xhi 
0.0	120.0	 ylo yhi 
0.0	3.4827	 zlo zhi 


 Masses 
 
1	12.011
2	1.008
3	12.011
4	15.999
5	1.008
6	15.999
7	15.999
8	12.011
9	15.999
10	15.999
11	12.011
12	12.011
13	15.999
354	40.08
349	22.99

 Pair Coeffs 
 
1	0.07	3.55
2	0.03	2.42
3	0.066	3.5
4	0.17	3.12
5	0.0	0.0
6	0.14	2.9
7	0.17	3.07
8	0.105	3.75
9	0.21	2.96
10	0.17	3.0
11	0.07	3.55
12	0.105	3.75
13	0.21	2.96
354	0.449657	2.412031
349	0.0005	4.07

 Bond Coeffs 
 
1	469.0	1.4
2	469.0	1.4
3	469.0	1.4
4	450.0	1.364
5	367.0	1.08
6	553.0	0.945

 Angle Coeffs 
 
1	70.0	120.0
2	63.0	120.0
3	70.0	120.0
4	63.0	120.0
5	63.0	120.0
6	35.0	120.0
7	63.0	120.0
8	63.0	120.0
9	35.0	120.0
10	35.0	113.0

 Dihedral Coeffs 
 
1	0.0	7.25	0.0	0.0
2	0.0	7.25	0.0	0.0
3	0.0	7.25	0.0	0.0
4	0.0	7.25	0.0	0.0
5	0.0	7.25	0.0	0.0
6	0.0	7.25	0.0	0.0
7	0.0	7.25	0.0	0.0
8	0.0	7.25	0.0	0.0
9	0.0	7.25	0.0	0.0
10	0.0	7.25	0.0	0.0
11	0.0	7.25	0.0	0.0
12	0.0	7.25	0.0	0.0
13	0.0	7.25	0.0	0.0
14	0.0	7.25	0.0	0.0
15	0.0	7.25	0.0	0.0
16	0.0	7.25	0.0	0.0
17	0.0	7.25	0.0	0.0
18	0.0	1.682	0.0	0.0
19	0.0	1.682	0.0	0.0

 Improper Coeffs 
 
1	5.0	180.0
2	5.0	180.0
3	5.0	180.0
4	5.0	180.0
5	5.0	180.0
6	5.0	180.0
7	5.0	180.0

 Atoms 
 
1	 1	 11	 0.15	 0.0	 0.0	 0.0
 2	 1	 11	 0.15	 1.225252741274224	 -0.7074	 0.0
 3	 1	 1	 0.0	 2.450505482548448	 0.0	 0.0
 4	 1	 1	 -0.115	 3.675758223822672	 -0.7074	 0.0
 5	 1	 1	 0.0	 4.901010965096896	 0.0	 0.0
 6	 1	 1	 -0.115	 6.12626370637112	 -0.7074	 0.0
 7	 1	 1	 0.0	 7.351516447645344	 0.0	 0.0
 8	 1	 11	 0.15	 8.576769188919569	 -0.7074	 0.0
 9	 1	 1	 0.0	 9.802021930193792	 0.0	 0.0
 10	 1	 1	 -0.115	 11.027274671468016	 -0.7074	 0.0
 11	 1	 1	 0.0	 12.25252741274224	 0.0	 0.0
 12	 1	 1	 -0.115	 13.477780154016463	 -0.7074	 0.0
 13	 1	 1	 0.0	 14.703032895290686	 0.0	 0.0
 14	 1	 1	 -0.115	 15.928285636564912	 -0.7074	 0.0
 15	 1	 1	 0.0	 17.153538377839137	 0.0	 0.0
 16	 1	 11	 0.15	 18.378791119113362	 -0.7074	 0.0
 17	 1	 11	 0.15	 19.604043860387584	 0.0	 0.0
 18	 1	 1	 -0.115	 0.0	 1.4148	 0.0
 19	 1	 1	 0.0	 1.225252741274224	 2.1222000000000003	 0.0
 20	 1	 1	 0.0	 2.450505482548448	 1.4148	 0.0
 21	 1	 1	 0.0	 3.675758223822672	 2.1222000000000003	 0.0
 22	 1	 1	 0.0	 4.901010965096896	 1.4148	 0.0
 23	 1	 1	 0.0	 6.12626370637112	 2.1222000000000003	 0.0
 24	 1	 1	 0.0	 7.351516447645344	 1.4148	 0.0
 25	 1	 1	 0.0	 8.576769188919569	 2.1222000000000003	 0.0
 26	 1	 1	 0.0	 9.802021930193792	 1.4148	 0.0
 27	 1	 1	 0.0	 11.027274671468016	 2.1222000000000003	 0.0
 28	 1	 1	 0.0	 12.25252741274224	 1.4148	 0.0
 29	 1	 1	 0.0	 13.477780154016463	 2.1222000000000003	 0.0
 30	 1	 1	 0.0	 14.703032895290686	 1.4148	 0.0
 31	 1	 1	 0.0	 15.928285636564912	 2.1222000000000003	 0.0
 32	 1	 1	 0.0	 17.153538377839137	 1.4148	 0.0
 33	 1	 1	 0.0	 18.378791119113362	 2.1222000000000003	 0.0
 34	 1	 11	 0.15	 19.604043860387584	 1.4148	 0.0
 35	 1	 1	 -0.115	 0.0	 4.244400000000001	 0.0
 36	 1	 1	 0.0	 1.225252741274224	 3.537000000000001	 0.0
 37	 1	 1	 0.0	 2.450505482548448	 4.244400000000001	 0.0
 38	 1	 1	 0.0	 3.675758223822672	 3.537000000000001	 0.0
 39	 1	 1	 0.0	 4.901010965096896	 4.244400000000001	 0.0
 40	 1	 1	 0.0	 6.12626370637112	 3.537000000000001	 0.0
 41	 1	 1	 0.0	 7.351516447645344	 4.244400000000001	 0.0
 42	 1	 1	 0.0	 8.576769188919569	 3.537000000000001	 0.0
 43	 1	 1	 0.0	 9.802021930193792	 4.244400000000001	 0.0
 44	 1	 1	 0.0	 11.027274671468016	 3.537000000000001	 0.0
 45	 1	 1	 0.0	 12.25252741274224	 4.244400000000001	 0.0
 46	 1	 1	 0.0	 13.477780154016463	 3.537000000000001	 0.0
 47	 1	 1	 0.0	 14.703032895290686	 4.244400000000001	 0.0
 48	 1	 1	 0.0	 15.928285636564912	 3.537000000000001	 0.0
 49	 1	 1	 0.0	 17.153538377839137	 4.244400000000001	 0.0
 50	 1	 1	 0.0	 18.378791119113362	 3.537000000000001	 0.0
 51	 1	 1	 -0.115	 19.604043860387584	 4.244400000000001	 0.0
 52	 1	 1	 -0.115	 0.0	 5.6592	 0.0
 53	 1	 1	 0.0	 1.225252741274224	 6.3666	 0.0
 54	 1	 1	 0.0	 2.450505482548448	 5.6592	 0.0
 55	 1	 1	 0.0	 3.675758223822672	 6.3666	 0.0
 56	 1	 1	 0.0	 4.901010965096896	 5.6592	 0.0
 57	 1	 1	 0.0	 6.12626370637112	 6.3666	 0.0
 58	 1	 1	 0.0	 7.351516447645344	 5.6592	 0.0
 59	 1	 1	 0.0	 8.576769188919569	 6.3666	 0.0
 60	 1	 1	 0.0	 9.802021930193792	 5.6592	 0.0
 61	 1	 1	 0.0	 11.027274671468016	 6.3666	 0.0
 62	 1	 1	 0.0	 12.25252741274224	 5.6592	 0.0
 63	 1	 1	 0.0	 13.477780154016463	 6.3666	 0.0
 64	 1	 1	 0.0	 14.703032895290686	 5.6592	 0.0
 65	 1	 1	 0.0	 15.928285636564912	 6.3666	 0.0
 66	 1	 1	 0.0	 17.153538377839137	 5.6592	 0.0
 67	 1	 1	 0.0	 18.378791119113362	 6.3666	 0.0
 68	 1	 11	 0.15	 19.604043860387584	 5.6592	 0.0
 69	 1	 1	 -0.115	 0.0	 8.488800000000001	 0.0
 70	 1	 1	 0.0	 1.225252741274224	 7.781400000000001	 0.0
 71	 1	 1	 0.0	 2.450505482548448	 8.488800000000001	 0.0
 72	 1	 1	 0.0	 3.675758223822672	 7.781400000000001	 0.0
 73	 1	 1	 0.0	 4.901010965096896	 8.488800000000001	 0.0
 74	 1	 1	 0.0	 6.12626370637112	 7.781400000000001	 0.0
 75	 1	 1	 0.0	 7.351516447645344	 8.488800000000001	 0.0
 76	 1	 1	 0.0	 8.576769188919569	 7.781400000000001	 0.0
 77	 1	 1	 0.0	 9.802021930193792	 8.488800000000001	 0.0
 78	 1	 1	 0.0	 11.027274671468016	 7.781400000000001	 0.0
 79	 1	 1	 0.0	 12.25252741274224	 8.488800000000001	 0.0
 80	 1	 1	 0.0	 13.477780154016463	 7.781400000000001	 0.0
 81	 1	 1	 0.0	 14.703032895290686	 8.488800000000001	 0.0
 82	 1	 1	 0.0	 15.928285636564912	 7.781400000000001	 0.0
 83	 1	 1	 0.0	 17.153538377839137	 8.488800000000001	 0.0
 84	 1	 1	 0.0	 18.378791119113362	 7.781400000000001	 0.0
 85	 1	 1	 -0.115	 19.604043860387584	 8.488800000000001	 0.0
 86	 1	 11	 0.15	 0.0	 9.9036	 0.0
 87	 1	 1	 0.0	 1.225252741274224	 10.611	 0.0
 88	 1	 1	 0.0	 2.450505482548448	 9.9036	 0.0
 89	 1	 1	 0.0	 3.675758223822672	 10.611	 0.0
 90	 1	 1	 0.0	 4.901010965096896	 9.9036	 0.0
 91	 1	 1	 0.0	 6.12626370637112	 10.611	 0.0
 92	 1	 1	 0.0	 7.351516447645344	 9.9036	 0.0
 93	 1	 1	 0.0	 8.576769188919569	 10.611	 0.0
 94	 1	 1	 0.0	 9.802021930193792	 9.9036	 0.0
 95	 1	 1	 0.0	 11.027274671468016	 10.611	 0.0
 96	 1	 1	 0.0	 12.25252741274224	 9.9036	 0.0
 97	 1	 1	 0.0	 13.477780154016463	 10.611	 0.0
 98	 1	 1	 0.0	 14.703032895290686	 9.9036	 0.0
 99	 1	 1	 0.0	 15.928285636564912	 10.611	 0.0
 100	 1	 1	 0.0	 17.153538377839137	 9.9036	 0.0
 101	 1	 1	 0.0	 18.378791119113362	 10.611	 0.0
 102	 1	 1	 -0.115	 19.604043860387584	 9.9036	 0.0
 103	 1	 11	 0.15	 0.0	 12.733200000000002	 0.0
 104	 1	 1	 0.0	 1.225252741274224	 12.025800000000002	 0.0
 105	 1	 1	 0.0	 2.450505482548448	 12.733200000000002	 0.0
 106	 1	 1	 0.0	 3.675758223822672	 12.025800000000002	 0.0
 107	 1	 1	 0.0	 4.901010965096896	 12.733200000000002	 0.0
 108	 1	 1	 0.0	 6.12626370637112	 12.025800000000002	 0.0
 109	 1	 1	 0.0	 7.351516447645344	 12.733200000000002	 0.0
 110	 1	 1	 0.0	 8.576769188919569	 12.025800000000002	 0.0
 111	 1	 1	 0.0	 9.802021930193792	 12.733200000000002	 0.0
 112	 1	 1	 0.0	 11.027274671468016	 12.025800000000002	 0.0
 113	 1	 1	 0.0	 12.25252741274224	 12.733200000000002	 0.0
 114	 1	 1	 0.0	 13.477780154016463	 12.025800000000002	 0.0
 115	 1	 1	 0.0	 14.703032895290686	 12.733200000000002	 0.0
 116	 1	 1	 0.0	 15.928285636564912	 12.025800000000002	 0.0
 117	 1	 1	 0.0	 17.153538377839137	 12.733200000000002	 0.0
 118	 1	 1	 0.0	 18.378791119113362	 12.025800000000002	 0.0
 119	 1	 1	 -0.115	 19.604043860387584	 12.733200000000002	 0.0
 120	 1	 1	 -0.115	 0.0	 14.148	 0.0
 121	 1	 1	 0.0	 1.225252741274224	 14.8554	 0.0
 122	 1	 1	 0.0	 2.450505482548448	 14.148	 0.0
 123	 1	 1	 0.0	 3.675758223822672	 14.8554	 0.0
 124	 1	 1	 0.0	 4.901010965096896	 14.148	 0.0
 125	 1	 1	 0.0	 6.12626370637112	 14.8554	 0.0
 126	 1	 1	 0.0	 7.351516447645344	 14.148	 0.0
 127	 1	 1	 0.0	 8.576769188919569	 14.8554	 0.0
 128	 1	 1	 0.0	 9.802021930193792	 14.148	 0.0
 129	 1	 1	 0.0	 11.027274671468016	 14.8554	 0.0
 130	 1	 1	 0.0	 12.25252741274224	 14.148	 0.0
 131	 1	 1	 0.0	 13.477780154016463	 14.8554	 0.0
 132	 1	 1	 0.0	 14.703032895290686	 14.148	 0.0
 133	 1	 1	 0.0	 15.928285636564912	 14.8554	 0.0
 134	 1	 1	 0.0	 17.153538377839137	 14.148	 0.0
 135	 1	 1	 0.0	 18.378791119113362	 14.8554	 0.0
 136	 1	 1	 -0.115	 19.604043860387584	 14.148	 0.0
 137	 1	 1	 -0.115	 0.0	 16.977600000000002	 0.0
 138	 1	 1	 0.0	 1.225252741274224	 16.270200000000003	 0.0
 139	 1	 1	 0.0	 2.450505482548448	 16.977600000000002	 0.0
 140	 1	 1	 0.0	 3.675758223822672	 16.270200000000003	 0.0
 141	 1	 1	 0.0	 4.901010965096896	 16.977600000000002	 0.0
 142	 1	 1	 0.0	 6.12626370637112	 16.270200000000003	 0.0
 143	 1	 1	 0.0	 7.351516447645344	 16.977600000000002	 0.0
 144	 1	 1	 0.0	 8.576769188919569	 16.270200000000003	 0.0
 145	 1	 1	 0.0	 9.802021930193792	 16.977600000000002	 0.0
 146	 1	 1	 0.0	 11.027274671468016	 16.270200000000003	 0.0
 147	 1	 1	 0.0	 12.25252741274224	 16.977600000000002	 0.0
 148	 1	 1	 0.0	 13.477780154016463	 16.270200000000003	 0.0
 149	 1	 1	 0.0	 14.703032895290686	 16.977600000000002	 0.0
 150	 1	 1	 0.0	 15.928285636564912	 16.270200000000003	 0.0
 151	 1	 1	 0.0	 17.153538377839137	 16.977600000000002	 0.0
 152	 1	 1	 0.0	 18.378791119113362	 16.270200000000003	 0.0
 153	 1	 1	 -0.115	 19.604043860387584	 16.977600000000002	 0.0
 154	 1	 1	 -0.115	 0.0	 18.392400000000002	 0.0
 155	 1	 1	 -0.115	 1.225252741274224	 19.099800000000002	 0.0
 156	 1	 1	 0.0	 2.450505482548448	 18.392400000000002	 0.0
 157	 1	 1	 -0.115	 3.675758223822672	 19.099800000000002	 0.0
 158	 1	 1	 0.0	 4.901010965096896	 18.392400000000002	 0.0
 159	 1	 1	 -0.115	 6.12626370637112	 19.099800000000002	 0.0
 160	 1	 1	 0.0	 7.351516447645344	 18.392400000000002	 0.0
 161	 1	 1	 -0.115	 8.576769188919569	 19.099800000000002	 0.0
 162	 1	 1	 0.0	 9.802021930193792	 18.392400000000002	 0.0
 163	 1	 11	 0.15	 11.027274671468016	 19.099800000000002	 0.0
 164	 1	 1	 0.0	 12.25252741274224	 18.392400000000002	 0.0
 165	 1	 1	 -0.115	 13.477780154016463	 19.099800000000002	 0.0
 166	 1	 1	 0.0	 14.703032895290686	 18.392400000000002	 0.0
 167	 1	 1	 -0.115	 15.928285636564912	 19.099800000000002	 0.0
 168	 1	 1	 0.0	 17.153538377839137	 18.392400000000002	 0.0
 169	 1	 11	 0.15	 18.378791119113362	 19.099800000000002	 0.0
 170	 1	 1	 -0.115	 19.604043860387584	 18.392400000000002	 0.0
 171	 1	 7	 -0.585	 1.225252741274224	 -2.1074	 0.0
 172	 1	 2	 0.115	 3.675758223822672	 -1.7844	 0.0
 173	 1	 2	 0.115	 6.12626370637112	 -1.7844	 0.0
 174	 1	 7	 -0.585	 8.576769188919569	 -2.1074	 0.0
 175	 1	 2	 0.115	 11.027274671468016	 -1.7844	 0.0
 176	 1	 2	 0.115	 13.477780154016463	 -1.7844	 0.0
 177	 1	 2	 0.115	 15.928285636564912	 -1.7844	 0.0
 178	 1	 7	 -0.585	 18.378791119113362	 -2.1074	 0.0
 179	 1	 2	 0.115	 1.225252741274224	 20.1768	 0.0
 180	 1	 2	 0.115	 3.675758223822672	 20.1768	 0.0
 181	 1	 2	 0.115	 6.12626370637112	 20.1768	 0.0
 182	 1	 2	 0.115	 8.576769188919569	 20.1768	 0.0
 183	 1	 7	 -0.585	 11.027274671468016	 20.4998	 0.0
 184	 1	 2	 0.115	 13.477780154016463	 20.1768	 0.0
 185	 1	 2	 0.115	 15.928285636564912	 20.1768	 0.0
 186	 1	 7	 -0.585	 18.378791119113362	 20.4998	 0.0
 187	 1	 7	 -0.585	 -1.2124355652982142	 -0.7	 0.0
 188	 1	 2	 0.115	 -0.9327093598758405	 1.9533	 0.0
 189	 1	 7	 -0.585	 20.8164794256858	 -0.7000000000000001	 0.0
 190	 1	 7	 -0.585	 20.8164794256858	 2.1148000000000002	 0.0
 191	 1	 2	 0.115	 -0.9327093598758405	 3.7059000000000006	 0.0
 192	 1	 2	 0.115	 -0.9327093598758405	 6.1977	 0.0
 193	 1	 2	 0.115	 20.536753220263424	 3.7059000000000006	 0.0
 194	 1	 7	 -0.585	 20.8164794256858	 6.3592	 0.0
 195	 1	 2	 0.115	 -0.9327093598758405	 7.950300000000001	 0.0
 196	 1	 7	 -0.585	 -1.2124355652982146	 10.6036	 0.0
 197	 1	 2	 0.115	 20.536753220263424	 7.950300000000001	 0.0
 198	 1	 2	 0.115	 20.536753220263424	 10.4421	 0.0
 199	 1	 7	 -0.585	 -1.2124355652982137	 12.0332	 0.0
 200	 1	 2	 0.115	 -0.9327093598758405	 14.686499999999999	 0.0
 201	 1	 2	 0.115	 20.536753220263424	 12.194700000000001	 0.0
 202	 1	 2	 0.115	 20.536753220263424	 14.686499999999999	 0.0
 203	 1	 2	 0.115	 -0.9327093598758405	 16.439100000000003	 0.0
 204	 1	 2	 0.115	 -0.9327093598758405	 18.9309	 0.0
 205	 1	 2	 0.115	 20.536753220263424	 16.439100000000003	 0.0
 206	 1	 2	 0.115	 20.536753220263424	 18.9309	 0.0
 207	 1	 5	 0.435	 1.225252741274224	 -2.8074000000000003	 -0.7
 208	 1	 5	 0.435	 8.576769188919569	 -2.8074000000000003	 -0.7
 209	 1	 5	 0.435	 18.378791119113362	 -2.8074000000000003	 -0.7
 210	 1	 5	 0.435	 11.027274671468016	 21.1998	 0.7
 211	 1	 5	 0.435	 18.378791119113362	 21.1998	 0.7
 212	 1	 5	 0.435	 -1.8186533479473213	 -1.0499999999999998	 -0.7
 213	 1	 5	 0.435	 21.422697208334906	 -1.05	 -0.7
 214	 1	 5	 0.435	 21.422697208334906	 2.4648000000000003	 0.7
 215	 1	 5	 0.435	 21.422697208334906	 6.7092	 0.7
 216	 1	 5	 0.435	 -1.818653347947322	 10.9536	 0.7
 217	 1	 5	 0.435	 -1.8186533479473206	 11.683200000000001	 0.7
 
 Bonds 
 
1	 1	 1	 2
2	 2	 2	 3
3	 3	 3	 4
4	 3	 4	 5
5	 3	 5	 6
6	 3	 6	 7
7	 2	 7	 8
8	 2	 8	 9
9	 3	 9	 10
10	 3	 10	 11
11	 3	 11	 12
12	 3	 12	 13
13	 3	 13	 14
14	 3	 14	 15
15	 2	 15	 16
16	 1	 16	 17
17	 3	 18	 19
18	 3	 19	 20
19	 3	 20	 21
20	 3	 21	 22
21	 3	 22	 23
22	 3	 23	 24
23	 3	 24	 25
24	 3	 25	 26
25	 3	 26	 27
26	 3	 27	 28
27	 3	 28	 29
28	 3	 29	 30
29	 3	 30	 31
30	 3	 31	 32
31	 3	 32	 33
32	 2	 33	 34
33	 3	 35	 36
34	 3	 36	 37
35	 3	 37	 38
36	 3	 38	 39
37	 3	 39	 40
38	 3	 40	 41
39	 3	 41	 42
40	 3	 42	 43
41	 3	 43	 44
42	 3	 44	 45
43	 3	 45	 46
44	 3	 46	 47
45	 3	 47	 48
46	 3	 48	 49
47	 3	 49	 50
48	 3	 50	 51
49	 3	 52	 53
50	 3	 53	 54
51	 3	 54	 55
52	 3	 55	 56
53	 3	 56	 57
54	 3	 57	 58
55	 3	 58	 59
56	 3	 59	 60
57	 3	 60	 61
58	 3	 61	 62
59	 3	 62	 63
60	 3	 63	 64
61	 3	 64	 65
62	 3	 65	 66
63	 3	 66	 67
64	 2	 67	 68
65	 3	 69	 70
66	 3	 70	 71
67	 3	 71	 72
68	 3	 72	 73
69	 3	 73	 74
70	 3	 74	 75
71	 3	 75	 76
72	 3	 76	 77
73	 3	 77	 78
74	 3	 78	 79
75	 3	 79	 80
76	 3	 80	 81
77	 3	 81	 82
78	 3	 82	 83
79	 3	 83	 84
80	 3	 84	 85
81	 2	 86	 87
82	 3	 87	 88
83	 3	 88	 89
84	 3	 89	 90
85	 3	 90	 91
86	 3	 91	 92
87	 3	 92	 93
88	 3	 93	 94
89	 3	 94	 95
90	 3	 95	 96
91	 3	 96	 97
92	 3	 97	 98
93	 3	 98	 99
94	 3	 99	 100
95	 3	 100	 101
96	 3	 101	 102
97	 2	 103	 104
98	 3	 104	 105
99	 3	 105	 106
100	 3	 106	 107
101	 3	 107	 108
102	 3	 108	 109
103	 3	 109	 110
104	 3	 110	 111
105	 3	 111	 112
106	 3	 112	 113
107	 3	 113	 114
108	 3	 114	 115
109	 3	 115	 116
110	 3	 116	 117
111	 3	 117	 118
112	 3	 118	 119
113	 3	 120	 121
114	 3	 121	 122
115	 3	 122	 123
116	 3	 123	 124
117	 3	 124	 125
118	 3	 125	 126
119	 3	 126	 127
120	 3	 127	 128
121	 3	 128	 129
122	 3	 129	 130
123	 3	 130	 131
124	 3	 131	 132
125	 3	 132	 133
126	 3	 133	 134
127	 3	 134	 135
128	 3	 135	 136
129	 3	 137	 138
130	 3	 138	 139
131	 3	 139	 140
132	 3	 140	 141
133	 3	 141	 142
134	 3	 142	 143
135	 3	 143	 144
136	 3	 144	 145
137	 3	 145	 146
138	 3	 146	 147
139	 3	 147	 148
140	 3	 148	 149
141	 3	 149	 150
142	 3	 150	 151
143	 3	 151	 152
144	 3	 152	 153
145	 3	 154	 155
146	 3	 155	 156
147	 3	 156	 157
148	 3	 157	 158
149	 3	 158	 159
150	 3	 159	 160
151	 3	 160	 161
152	 3	 161	 162
153	 2	 162	 163
154	 2	 163	 164
155	 3	 164	 165
156	 3	 165	 166
157	 3	 166	 167
158	 3	 167	 168
159	 2	 168	 169
160	 2	 169	 170
161	 2	 1	 18
162	 3	 3	 20
163	 3	 5	 22
164	 3	 7	 24
165	 3	 9	 26
166	 3	 11	 28
167	 3	 13	 30
168	 3	 15	 32
169	 1	 17	 34
170	 3	 19	 36
171	 3	 21	 38
172	 3	 23	 40
173	 3	 25	 42
174	 3	 27	 44
175	 3	 29	 46
176	 3	 31	 48
177	 3	 33	 50
178	 3	 35	 52
179	 3	 37	 54
180	 3	 39	 56
181	 3	 41	 58
182	 3	 43	 60
183	 3	 45	 62
184	 3	 47	 64
185	 3	 49	 66
186	 2	 51	 68
187	 3	 53	 70
188	 3	 55	 72
189	 3	 57	 74
190	 3	 59	 76
191	 3	 61	 78
192	 3	 63	 80
193	 3	 65	 82
194	 3	 67	 84
195	 2	 69	 86
196	 3	 71	 88
197	 3	 73	 90
198	 3	 75	 92
199	 3	 77	 94
200	 3	 79	 96
201	 3	 81	 98
202	 3	 83	 100
203	 3	 85	 102
204	 3	 87	 104
205	 3	 89	 106
206	 3	 91	 108
207	 3	 93	 110
208	 3	 95	 112
209	 3	 97	 114
210	 3	 99	 116
211	 3	 101	 118
212	 2	 103	 120
213	 3	 105	 122
214	 3	 107	 124
215	 3	 109	 126
216	 3	 111	 128
217	 3	 113	 130
218	 3	 115	 132
219	 3	 117	 134
220	 3	 119	 136
221	 3	 121	 138
222	 3	 123	 140
223	 3	 125	 142
224	 3	 127	 144
225	 3	 129	 146
226	 3	 131	 148
227	 3	 133	 150
228	 3	 135	 152
229	 3	 137	 154
230	 3	 139	 156
231	 3	 141	 158
232	 3	 143	 160
233	 3	 145	 162
234	 3	 147	 164
235	 3	 149	 166
236	 3	 151	 168
237	 3	 153	 170
238	 4	 2	 171
239	 5	 4	 172
240	 5	 6	 173
241	 4	 8	 174
242	 5	 10	 175
243	 5	 12	 176
244	 5	 14	 177
245	 4	 16	 178
246	 5	 155	 179
247	 5	 157	 180
248	 5	 159	 181
249	 5	 161	 182
250	 4	 163	 183
251	 5	 165	 184
252	 5	 167	 185
253	 4	 169	 186
254	 4	 1	 187
255	 5	 18	 188
256	 4	 17	 189
257	 4	 34	 190
258	 5	 35	 191
259	 5	 52	 192
260	 5	 51	 193
261	 4	 68	 194
262	 5	 69	 195
263	 4	 86	 196
264	 5	 85	 197
265	 5	 102	 198
266	 4	 103	 199
267	 5	 120	 200
268	 5	 119	 201
269	 5	 136	 202
270	 5	 137	 203
271	 5	 154	 204
272	 5	 153	 205
273	 5	 170	 206
274	 6	 171	 207
275	 6	 174	 208
276	 6	 178	 209
277	 6	 183	 210
278	 6	 186	 211
279	 6	 187	 212
280	 6	 189	 213
281	 6	 190	 214
282	 6	 194	 215
283	 6	 196	 216
284	 6	 199	 217

 Angles 
 
1	 1	 2	 1	 187
2	 2	 2	 1	 18
3	 3	 187	 1	 18
4	 2	 1	 2	 3
5	 1	 1	 2	 171
6	 3	 3	 2	 171
7	 4	 20	 3	 2
8	 5	 20	 3	 4
9	 4	 2	 3	 4
10	 6	 3	 4	 172
11	 5	 3	 4	 5
12	 6	 172	 4	 5
13	 5	 4	 5	 6
14	 5	 4	 5	 22
15	 5	 6	 5	 22
16	 6	 173	 6	 5
17	 6	 173	 6	 7
18	 5	 5	 6	 7
19	 5	 24	 7	 6
20	 4	 24	 7	 8
21	 4	 6	 7	 8
22	 3	 9	 8	 174
23	 7	 9	 8	 7
24	 3	 174	 8	 7
25	 5	 10	 9	 26
26	 4	 10	 9	 8
27	 4	 26	 9	 8
28	 5	 9	 10	 11
29	 6	 9	 10	 175
30	 6	 11	 10	 175
31	 5	 28	 11	 10
32	 5	 28	 11	 12
33	 5	 10	 11	 12
34	 5	 11	 12	 13
35	 6	 11	 12	 176
36	 6	 13	 12	 176
37	 5	 12	 13	 14
38	 5	 12	 13	 30
39	 5	 14	 13	 30
40	 6	 177	 14	 13
41	 6	 177	 14	 15
42	 5	 13	 14	 15
43	 5	 32	 15	 14
44	 4	 32	 15	 16
45	 4	 14	 15	 16
46	 1	 17	 16	 178
47	 2	 17	 16	 15
48	 3	 178	 16	 15
49	 1	 34	 17	 189
50	 8	 34	 17	 16
51	 1	 189	 17	 16
52	 4	 1	 18	 19
53	 9	 1	 18	 188
54	 6	 19	 18	 188
55	 5	 18	 19	 20
56	 5	 18	 19	 36
57	 5	 20	 19	 36
58	 5	 19	 20	 21
59	 5	 19	 20	 3
60	 5	 21	 20	 3
61	 5	 20	 21	 22
62	 5	 20	 21	 38
63	 5	 22	 21	 38
64	 5	 5	 22	 21
65	 5	 5	 22	 23
66	 5	 21	 22	 23
67	 5	 40	 23	 22
68	 5	 40	 23	 24
69	 5	 22	 23	 24
70	 5	 25	 24	 7
71	 5	 25	 24	 23
72	 5	 7	 24	 23
73	 5	 26	 25	 42
74	 5	 26	 25	 24
75	 5	 42	 25	 24
76	 5	 25	 26	 9
77	 5	 25	 26	 27
78	 5	 9	 26	 27
79	 5	 26	 27	 28
80	 5	 26	 27	 44
81	 5	 28	 27	 44
82	 5	 27	 28	 29
83	 5	 27	 28	 11
84	 5	 29	 28	 11
85	 5	 28	 29	 30
86	 5	 28	 29	 46
87	 5	 30	 29	 46
88	 5	 13	 30	 29
89	 5	 13	 30	 31
90	 5	 29	 30	 31
91	 5	 48	 31	 30
92	 5	 48	 31	 32
93	 5	 30	 31	 32
94	 5	 33	 32	 15
95	 5	 33	 32	 31
96	 5	 15	 32	 31
97	 4	 34	 33	 50
98	 4	 34	 33	 32
99	 5	 50	 33	 32
100	 2	 33	 34	 17
101	 3	 33	 34	 190
102	 1	 17	 34	 190
103	 5	 52	 35	 36
104	 6	 52	 35	 191
105	 6	 36	 35	 191
106	 5	 35	 36	 37
107	 5	 35	 36	 19
108	 5	 37	 36	 19
109	 5	 36	 37	 38
110	 5	 36	 37	 54
111	 5	 38	 37	 54
112	 5	 21	 38	 37
113	 5	 21	 38	 39
114	 5	 37	 38	 39
115	 5	 56	 39	 38
116	 5	 56	 39	 40
117	 5	 38	 39	 40
118	 5	 41	 40	 23
119	 5	 41	 40	 39
120	 5	 23	 40	 39
121	 5	 42	 41	 58
122	 5	 42	 41	 40
123	 5	 58	 41	 40
124	 5	 41	 42	 25
125	 5	 41	 42	 43
126	 5	 25	 42	 43
127	 5	 42	 43	 44
128	 5	 42	 43	 60
129	 5	 44	 43	 60
130	 5	 43	 44	 45
131	 5	 43	 44	 27
132	 5	 45	 44	 27
133	 5	 44	 45	 46
134	 5	 44	 45	 62
135	 5	 46	 45	 62
136	 5	 29	 46	 45
137	 5	 29	 46	 47
138	 5	 45	 46	 47
139	 5	 64	 47	 46
140	 5	 64	 47	 48
141	 5	 46	 47	 48
142	 5	 49	 48	 31
143	 5	 49	 48	 47
144	 5	 31	 48	 47
145	 5	 50	 49	 66
146	 5	 50	 49	 48
147	 5	 66	 49	 48
148	 5	 49	 50	 33
149	 5	 49	 50	 51
150	 5	 33	 50	 51
151	 6	 193	 51	 50
152	 9	 193	 51	 68
153	 4	 50	 51	 68
154	 5	 35	 52	 53
155	 6	 35	 52	 192
156	 6	 53	 52	 192
157	 5	 52	 53	 54
158	 5	 52	 53	 70
159	 5	 54	 53	 70
160	 5	 37	 54	 53
161	 5	 37	 54	 55
162	 5	 53	 54	 55
163	 5	 72	 55	 54
164	 5	 72	 55	 56
165	 5	 54	 55	 56
166	 5	 57	 56	 39
167	 5	 57	 56	 55
168	 5	 39	 56	 55
169	 5	 58	 57	 74
170	 5	 58	 57	 56
171	 5	 74	 57	 56
172	 5	 57	 58	 41
173	 5	 57	 58	 59
174	 5	 41	 58	 59
175	 5	 58	 59	 76
176	 5	 58	 59	 60
177	 5	 76	 59	 60
178	 5	 59	 60	 61
179	 5	 59	 60	 43
180	 5	 61	 60	 43
181	 5	 60	 61	 62
182	 5	 60	 61	 78
183	 5	 62	 61	 78
184	 5	 45	 62	 61
185	 5	 45	 62	 63
186	 5	 61	 62	 63
187	 5	 80	 63	 62
188	 5	 80	 63	 64
189	 5	 62	 63	 64
190	 5	 65	 64	 47
191	 5	 65	 64	 63
192	 5	 47	 64	 63
193	 5	 66	 65	 82
194	 5	 66	 65	 64
195	 5	 82	 65	 64
196	 5	 65	 66	 49
197	 5	 65	 66	 67
198	 5	 49	 66	 67
199	 5	 66	 67	 84
200	 4	 66	 67	 68
201	 4	 84	 67	 68
202	 3	 194	 68	 67
203	 3	 194	 68	 51
204	 7	 67	 68	 51
205	 6	 195	 69	 70
206	 9	 195	 69	 86
207	 4	 70	 69	 86
208	 5	 53	 70	 69
209	 5	 53	 70	 71
210	 5	 69	 70	 71
211	 5	 88	 71	 70
212	 5	 88	 71	 72
213	 5	 70	 71	 72
214	 5	 73	 72	 55
215	 5	 73	 72	 71
216	 5	 55	 72	 71
217	 5	 74	 73	 90
218	 5	 74	 73	 72
219	 5	 90	 73	 72
220	 5	 73	 74	 57
221	 5	 73	 74	 75
222	 5	 57	 74	 75
223	 5	 74	 75	 92
224	 5	 74	 75	 76
225	 5	 92	 75	 76
226	 5	 75	 76	 77
227	 5	 75	 76	 59
228	 5	 77	 76	 59
229	 5	 76	 77	 78
230	 5	 76	 77	 94
231	 5	 78	 77	 94
232	 5	 61	 78	 77
233	 5	 61	 78	 79
234	 5	 77	 78	 79
235	 5	 96	 79	 78
236	 5	 96	 79	 80
237	 5	 78	 79	 80
238	 5	 81	 80	 63
239	 5	 81	 80	 79
240	 5	 63	 80	 79
241	 5	 82	 81	 98
242	 5	 82	 81	 80
243	 5	 98	 81	 80
244	 5	 81	 82	 65
245	 5	 81	 82	 83
246	 5	 65	 82	 83
247	 5	 100	 83	 82
248	 5	 100	 83	 84
249	 5	 82	 83	 84
250	 5	 83	 84	 85
251	 5	 83	 84	 67
252	 5	 85	 84	 67
253	 6	 84	 85	 197
254	 5	 84	 85	 102
255	 6	 197	 85	 102
256	 3	 196	 86	 69
257	 3	 196	 86	 87
258	 7	 69	 86	 87
259	 4	 104	 87	 86
260	 5	 104	 87	 88
261	 4	 86	 87	 88
262	 5	 89	 88	 71
263	 5	 89	 88	 87
264	 5	 71	 88	 87
265	 5	 90	 89	 106
266	 5	 90	 89	 88
267	 5	 106	 89	 88
268	 5	 89	 90	 73
269	 5	 89	 90	 91
270	 5	 73	 90	 91
271	 5	 108	 91	 90
272	 5	 108	 91	 92
273	 5	 90	 91	 92
274	 5	 91	 92	 93
275	 5	 91	 92	 75
276	 5	 93	 92	 75
277	 5	 92	 93	 94
278	 5	 92	 93	 110
279	 5	 94	 93	 110
280	 5	 77	 94	 93
281	 5	 77	 94	 95
282	 5	 93	 94	 95
283	 5	 112	 95	 94
284	 5	 112	 95	 96
285	 5	 94	 95	 96
286	 5	 97	 96	 79
287	 5	 97	 96	 95
288	 5	 79	 96	 95
289	 5	 98	 97	 114
290	 5	 98	 97	 96
291	 5	 114	 97	 96
292	 5	 97	 98	 81
293	 5	 97	 98	 99
294	 5	 81	 98	 99
295	 5	 116	 99	 98
296	 5	 116	 99	 100
297	 5	 98	 99	 100
298	 5	 99	 100	 101
299	 5	 99	 100	 83
300	 5	 101	 100	 83
301	 5	 100	 101	 102
302	 5	 100	 101	 118
303	 5	 102	 101	 118
304	 5	 85	 102	 101
305	 6	 85	 102	 198
306	 6	 101	 102	 198
307	 3	 120	 103	 199
308	 7	 120	 103	 104
309	 3	 199	 103	 104
310	 5	 105	 104	 87
311	 4	 105	 104	 103
312	 4	 87	 104	 103
313	 5	 106	 105	 122
314	 5	 106	 105	 104
315	 5	 122	 105	 104
316	 5	 105	 106	 89
317	 5	 105	 106	 107
318	 5	 89	 106	 107
319	 5	 124	 107	 106
320	 5	 124	 107	 108
321	 5	 106	 107	 108
322	 5	 107	 108	 109
323	 5	 107	 108	 91
324	 5	 109	 108	 91
325	 5	 108	 109	 110
326	 5	 108	 109	 126
327	 5	 110	 109	 126
328	 5	 93	 110	 109
329	 5	 93	 110	 111
330	 5	 109	 110	 111
331	 5	 128	 111	 110
332	 5	 128	 111	 112
333	 5	 110	 111	 112
334	 5	 113	 112	 95
335	 5	 113	 112	 111
336	 5	 95	 112	 111
337	 5	 130	 113	 114
338	 5	 130	 113	 112
339	 5	 114	 113	 112
340	 5	 113	 114	 97
341	 5	 113	 114	 115
342	 5	 97	 114	 115
343	 5	 114	 115	 116
344	 5	 114	 115	 132
345	 5	 116	 115	 132
346	 5	 115	 116	 117
347	 5	 115	 116	 99
348	 5	 117	 116	 99
349	 5	 116	 117	 118
350	 5	 116	 117	 134
351	 5	 118	 117	 134
352	 5	 101	 118	 117
353	 5	 101	 118	 119
354	 5	 117	 118	 119
355	 6	 201	 119	 118
356	 6	 201	 119	 136
357	 5	 118	 119	 136
358	 4	 121	 120	 103
359	 6	 121	 120	 200
360	 9	 103	 120	 200
361	 5	 138	 121	 122
362	 5	 138	 121	 120
363	 5	 122	 121	 120
364	 5	 121	 122	 105
365	 5	 121	 122	 123
366	 5	 105	 122	 123
367	 5	 122	 123	 124
368	 5	 122	 123	 140
369	 5	 124	 123	 140
370	 5	 123	 124	 125
371	 5	 123	 124	 107
372	 5	 125	 124	 107
373	 5	 124	 125	 126
374	 5	 124	 125	 142
375	 5	 126	 125	 142
376	 5	 109	 126	 125
377	 5	 109	 126	 127
378	 5	 125	 126	 127
379	 5	 144	 127	 126
380	 5	 144	 127	 128
381	 5	 126	 127	 128
382	 5	 129	 128	 111
383	 5	 129	 128	 127
384	 5	 111	 128	 127
385	 5	 146	 129	 130
386	 5	 146	 129	 128
387	 5	 130	 129	 128
388	 5	 129	 130	 113
389	 5	 129	 130	 131
390	 5	 113	 130	 131
391	 5	 130	 131	 132
392	 5	 130	 131	 148
393	 5	 132	 131	 148
394	 5	 131	 132	 133
395	 5	 131	 132	 115
396	 5	 133	 132	 115
397	 5	 132	 133	 134
398	 5	 132	 133	 150
399	 5	 134	 133	 150
400	 5	 117	 134	 133
401	 5	 117	 134	 135
402	 5	 133	 134	 135
403	 5	 152	 135	 134
404	 5	 152	 135	 136
405	 5	 134	 135	 136
406	 6	 202	 136	 119
407	 6	 202	 136	 135
408	 5	 119	 136	 135
409	 6	 138	 137	 203
410	 5	 138	 137	 154
411	 6	 203	 137	 154
412	 5	 137	 138	 121
413	 5	 137	 138	 139
414	 5	 121	 138	 139
415	 5	 138	 139	 140
416	 5	 138	 139	 156
417	 5	 140	 139	 156
418	 5	 139	 140	 141
419	 5	 139	 140	 123
420	 5	 141	 140	 123
421	 5	 140	 141	 142
422	 5	 140	 141	 158
423	 5	 142	 141	 158
424	 5	 125	 142	 141
425	 5	 125	 142	 143
426	 5	 141	 142	 143
427	 5	 160	 143	 142
428	 5	 160	 143	 144
429	 5	 142	 143	 144
430	 5	 145	 144	 127
431	 5	 145	 144	 143
432	 5	 127	 144	 143
433	 5	 146	 145	 162
434	 5	 146	 145	 144
435	 5	 162	 145	 144
436	 5	 145	 146	 129
437	 5	 145	 146	 147
438	 5	 129	 146	 147
439	 5	 146	 147	 148
440	 5	 146	 147	 164
441	 5	 148	 147	 164
442	 5	 147	 148	 149
443	 5	 147	 148	 131
444	 5	 149	 148	 131
445	 5	 148	 149	 150
446	 5	 148	 149	 166
447	 5	 150	 149	 166
448	 5	 133	 150	 149
449	 5	 133	 150	 151
450	 5	 149	 150	 151
451	 5	 168	 151	 150
452	 5	 168	 151	 152
453	 5	 150	 151	 152
454	 5	 153	 152	 135
455	 5	 153	 152	 151
456	 5	 135	 152	 151
457	 6	 170	 153	 205
458	 5	 170	 153	 152
459	 6	 205	 153	 152
460	 5	 137	 154	 155
461	 6	 137	 154	 204
462	 6	 155	 154	 204
463	 6	 154	 155	 179
464	 5	 154	 155	 156
465	 6	 179	 155	 156
466	 5	 155	 156	 157
467	 5	 155	 156	 139
468	 5	 157	 156	 139
469	 6	 180	 157	 156
470	 6	 180	 157	 158
471	 5	 156	 157	 158
472	 5	 141	 158	 157
473	 5	 141	 158	 159
474	 5	 157	 158	 159
475	 6	 181	 159	 158
476	 6	 181	 159	 160
477	 5	 158	 159	 160
478	 5	 161	 160	 143
479	 5	 161	 160	 159
480	 5	 143	 160	 159
481	 6	 162	 161	 182
482	 5	 162	 161	 160
483	 6	 182	 161	 160
484	 5	 161	 162	 145
485	 4	 161	 162	 163
486	 4	 145	 162	 163
487	 7	 162	 163	 164
488	 3	 162	 163	 183
489	 3	 164	 163	 183
490	 4	 163	 164	 165
491	 4	 163	 164	 147
492	 5	 165	 164	 147
493	 5	 164	 165	 166
494	 6	 164	 165	 184
495	 6	 166	 165	 184
496	 5	 149	 166	 165
497	 5	 149	 166	 167
498	 5	 165	 166	 167
499	 6	 185	 167	 166
500	 6	 185	 167	 168
501	 5	 166	 167	 168
502	 4	 169	 168	 151
503	 4	 169	 168	 167
504	 5	 151	 168	 167
505	 3	 170	 169	 186
506	 7	 170	 169	 168
507	 3	 186	 169	 168
508	 4	 169	 170	 153
509	 9	 169	 170	 206
510	 6	 153	 170	 206
511	 10	 2	 171	 207
512	 10	 208	 174	 8
513	 10	 209	 178	 16
514	 10	 210	 183	 163
515	 10	 169	 186	 211
516	 10	 1	 187	 212
517	 10	 17	 189	 213
518	 10	 34	 190	 214
519	 10	 68	 194	 215
520	 10	 86	 196	 216
521	 10	 217	 199	 103

 Dihedrals 
 
1	1 	187 	1 	2 	3 
2	2 	187 	1 	2 	171 
3	3 	18 	1 	2 	3 
4	1 	18 	1 	2 	171 
5	4 	1 	2 	3 	20 
6	4 	1 	2 	3 	4 
7	5 	171 	2 	3 	20 
8	5 	171 	2 	3 	4 
9	6 	20 	3 	4 	172 
10	7 	20 	3 	4 	5 
11	8 	2 	3 	4 	172 
12	9 	2 	3 	4 	5 
13	7 	3 	4 	5 	6 
14	7 	3 	4 	5 	22 
15	6 	172 	4 	5 	6 
16	6 	172 	4 	5 	22 
17	6 	4 	5 	6 	173 
18	7 	4 	5 	6 	7 
19	6 	22 	5 	6 	173 
20	7 	22 	5 	6 	7 
21	6 	173 	6 	7 	24 
22	8 	173 	6 	7 	8 
23	7 	5 	6 	7 	24 
24	9 	5 	6 	7 	8 
25	10 	24 	7 	8 	9 
26	5 	24 	7 	8 	174 
27	10 	6 	7 	8 	9 
28	5 	6 	7 	8 	174 
29	5 	174 	8 	9 	10 
30	5 	174 	8 	9 	26 
31	10 	7 	8 	9 	10 
32	10 	7 	8 	9 	26 
33	7 	26 	9 	10 	11 
34	6 	26 	9 	10 	175 
35	9 	8 	9 	10 	11 
36	8 	8 	9 	10 	175 
37	7 	9 	10 	11 	28 
38	7 	9 	10 	11 	12 
39	6 	175 	10 	11 	28 
40	6 	175 	10 	11 	12 
41	7 	28 	11 	12 	13 
42	6 	28 	11 	12 	176 
43	7 	10 	11 	12 	13 
44	6 	10 	11 	12 	176 
45	7 	11 	12 	13 	14 
46	7 	11 	12 	13 	30 
47	6 	176 	12 	13 	14 
48	6 	176 	12 	13 	30 
49	6 	12 	13 	14 	177 
50	7 	12 	13 	14 	15 
51	6 	30 	13 	14 	177 
52	7 	30 	13 	14 	15 
53	6 	177 	14 	15 	32 
54	8 	177 	14 	15 	16 
55	7 	13 	14 	15 	32 
56	9 	13 	14 	15 	16 
57	4 	32 	15 	16 	17 
58	5 	32 	15 	16 	178 
59	4 	14 	15 	16 	17 
60	5 	14 	15 	16 	178 
61	11 	178 	16 	17 	34 
62	2 	178 	16 	17 	189 
63	12 	15 	16 	17 	34 
64	1 	15 	16 	17 	189 
65	9 	1 	18 	19 	20 
66	9 	1 	18 	19 	36 
67	6 	188 	18 	19 	20 
68	6 	188 	18 	19 	36 
69	7 	18 	19 	20 	21 
70	7 	18 	19 	20 	3 
71	7 	36 	19 	20 	21 
72	7 	36 	19 	20 	3 
73	7 	19 	20 	21 	22 
74	7 	19 	20 	21 	38 
75	7 	3 	20 	21 	22 
76	7 	3 	20 	21 	38 
77	7 	20 	21 	22 	5 
78	7 	20 	21 	22 	23 
79	7 	38 	21 	22 	5 
80	7 	38 	21 	22 	23 
81	7 	5 	22 	23 	40 
82	7 	5 	22 	23 	24 
83	7 	21 	22 	23 	40 
84	7 	21 	22 	23 	24 
85	7 	40 	23 	24 	25 
86	7 	40 	23 	24 	7 
87	7 	22 	23 	24 	25 
88	7 	22 	23 	24 	7 
89	7 	7 	24 	25 	26 
90	7 	7 	24 	25 	42 
91	7 	23 	24 	25 	26 
92	7 	23 	24 	25 	42 
93	7 	42 	25 	26 	9 
94	7 	42 	25 	26 	27 
95	7 	24 	25 	26 	9 