# GO
307 atoms 
411 bonds 
767 angles 
1446 dihedrals 
252 impropers 

354 atom types 
6 bond types 
9 angle types 
15 dihedral types 
6 improper types 

0.0	128.0	 xlo xhi 
0.0	128.0	 ylo yhi 
0.0	3.4827	 zlo zhi 


 Masses 
 
1	12.011
2	1.008
3	12.011
4	15.999
5	1.008
6	15.999
7	15.999
8	12.011
9	15.999
10	15.999
11	12.011
12	12.011
13	15.999
354	40.08
349	22.99

 Pair Coeffs 
 
1	0.07	3.55
2	0.03	2.42
3	0.066	3.5
4	0.17	3.12
5	0.0	0.0
6	0.14	2.9
7	0.17	3.07
8	0.105	3.75
9	0.21	2.96
10	0.17	3.0
11	0.07	3.55
12	0.105	3.75
13	0.21	2.96
354	0.449657	2.412031
349	0.0005	4.07

 Bond Coeffs 
 
1	469.0	1.4
2	469.0	1.4
3	469.0	1.4
4	367.0	1.08
5	450.0	1.364
6	553.0	0.945

 Angle Coeffs 
 
1	35.0	120.0
2	63.0	120.0
3	63.0	120.0
4	63.0	120.0
5	70.0	120.0
6	35.0	120.0
7	63.0	120.0
8	70.0	120.0
9	35.0	113.0

 Dihedral Coeffs 
 
1	0.0	7.25	0.0	0.0
2	0.0	7.25	0.0	0.0
3	0.0	7.25	0.0	0.0
4	0.0	7.25	0.0	0.0
5	0.0	7.25	0.0	0.0
6	0.0	7.25	0.0	0.0
7	0.0	7.25	0.0	0.0
8	0.0	7.25	0.0	0.0
9	0.0	7.25	0.0	0.0
10	0.0	7.25	0.0	0.0
11	0.0	7.25	0.0	0.0
12	0.0	7.25	0.0	0.0
13	0.0	7.25	0.0	0.0
14	0.0	1.682	0.0	0.0
15	0.0	1.682	0.0	0.0

 Improper Coeffs 
 
1	5.0	180.0
2	5.0	180.0
3	5.0	180.0
4	5.0	180.0
5	5.0	180.0
6	5.0	180.0

 Atoms 
 
1	 1	 1	 -0.115	 0.0	 0.0	 0.0
 2	 1	 1	 -0.115	 1.225252741274224	 -0.7074	 0.0
 3	 1	 1	 0.0	 2.450505482548448	 0.0	 0.0
 4	 1	 1	 -0.115	 3.675758223822672	 -0.7074	 0.0
 5	 1	 1	 0.0	 4.901010965096896	 0.0	 0.0
 6	 1	 1	 -0.115	 6.12626370637112	 -0.7074	 0.0
 7	 1	 1	 0.0	 7.351516447645344	 0.0	 0.0
 8	 1	 11	 0.15	 8.576769188919569	 -0.7074	 0.0
 9	 1	 1	 0.0	 9.802021930193792	 0.0	 0.0
 10	 1	 1	 -0.115	 11.027274671468016	 -0.7074	 0.0
 11	 1	 1	 0.0	 12.25252741274224	 0.0	 0.0
 12	 1	 1	 -0.115	 13.477780154016463	 -0.7074	 0.0
 13	 1	 1	 0.0	 14.703032895290686	 0.0	 0.0
 14	 1	 1	 -0.115	 15.928285636564912	 -0.7074	 0.0
 15	 1	 1	 0.0	 17.153538377839137	 0.0	 0.0
 16	 1	 1	 -0.115	 18.378791119113362	 -0.7074	 0.0
 17	 1	 1	 0.0	 19.604043860387584	 0.0	 0.0
 18	 1	 1	 -0.115	 20.82929660166181	 -0.7074	 0.0
 19	 1	 1	 0.0	 22.05454934293603	 0.0	 0.0
 20	 1	 1	 -0.115	 23.279802084210257	 -0.7074	 0.0
 21	 1	 11	 0.15	 24.50505482548448	 0.0	 0.0
 22	 1	 1	 -0.115	 0.0	 1.4148	 0.0
 23	 1	 1	 0.0	 1.225252741274224	 2.1222000000000003	 0.0
 24	 1	 1	 0.0	 2.450505482548448	 1.4148	 0.0
 25	 1	 1	 0.0	 3.675758223822672	 2.1222000000000003	 0.0
 26	 1	 1	 0.0	 4.901010965096896	 1.4148	 0.0
 27	 1	 1	 0.0	 6.12626370637112	 2.1222000000000003	 0.0
 28	 1	 1	 0.0	 7.351516447645344	 1.4148	 0.0
 29	 1	 1	 0.0	 8.576769188919569	 2.1222000000000003	 0.0
 30	 1	 1	 0.0	 9.802021930193792	 1.4148	 0.0
 31	 1	 1	 0.0	 11.027274671468016	 2.1222000000000003	 0.0
 32	 1	 1	 0.0	 12.25252741274224	 1.4148	 0.0
 33	 1	 1	 0.0	 13.477780154016463	 2.1222000000000003	 0.0
 34	 1	 1	 0.0	 14.703032895290686	 1.4148	 0.0
 35	 1	 1	 0.0	 15.928285636564912	 2.1222000000000003	 0.0
 36	 1	 1	 0.0	 17.153538377839137	 1.4148	 0.0
 37	 1	 1	 0.0	 18.378791119113362	 2.1222000000000003	 0.0
 38	 1	 1	 0.0	 19.604043860387584	 1.4148	 0.0
 39	 1	 1	 0.0	 20.82929660166181	 2.1222000000000003	 0.0
 40	 1	 1	 0.0	 22.05454934293603	 1.4148	 0.0
 41	 1	 1	 0.0	 23.279802084210257	 2.1222000000000003	 0.0
 42	 1	 1	 -0.115	 24.50505482548448	 1.4148	 0.0
 43	 1	 11	 0.15	 0.0	 4.244400000000001	 0.0
 44	 1	 1	 0.0	 1.225252741274224	 3.537000000000001	 0.0
 45	 1	 1	 0.0	 2.450505482548448	 4.244400000000001	 0.0
 46	 1	 1	 0.0	 3.675758223822672	 3.537000000000001	 0.0
 47	 1	 1	 0.0	 4.901010965096896	 4.244400000000001	 0.0
 48	 1	 1	 0.0	 6.12626370637112	 3.537000000000001	 0.0
 49	 1	 1	 0.0	 7.351516447645344	 4.244400000000001	 0.0
 50	 1	 1	 0.0	 8.576769188919569	 3.537000000000001	 0.0
 51	 1	 1	 0.0	 9.802021930193792	 4.244400000000001	 0.0
 52	 1	 1	 0.0	 11.027274671468016	 3.537000000000001	 0.0
 53	 1	 1	 0.0	 12.25252741274224	 4.244400000000001	 0.0
 54	 1	 1	 0.0	 13.477780154016463	 3.537000000000001	 0.0
 55	 1	 1	 0.0	 14.703032895290686	 4.244400000000001	 0.0
 56	 1	 1	 0.0	 15.928285636564912	 3.537000000000001	 0.0
 57	 1	 1	 0.0	 17.153538377839137	 4.244400000000001	 0.0
 58	 1	 1	 0.0	 18.378791119113362	 3.537000000000001	 0.0
 59	 1	 1	 0.0	 19.604043860387584	 4.244400000000001	 0.0
 60	 1	 1	 0.0	 20.82929660166181	 3.537000000000001	 0.0
 61	 1	 1	 0.0	 22.05454934293603	 4.244400000000001	 0.0
 62	 1	 1	 0.0	 23.279802084210257	 3.537000000000001	 0.0
 63	 1	 1	 -0.115	 24.50505482548448	 4.244400000000001	 0.0
 64	 1	 11	 0.15	 0.0	 5.6592	 0.0
 65	 1	 1	 0.0	 1.225252741274224	 6.3666	 0.0
 66	 1	 1	 0.0	 2.450505482548448	 5.6592	 0.0
 67	 1	 1	 0.0	 3.675758223822672	 6.3666	 0.0
 68	 1	 1	 0.0	 4.901010965096896	 5.6592	 0.0
 69	 1	 1	 0.0	 6.12626370637112	 6.3666	 0.0
 70	 1	 1	 0.0	 7.351516447645344	 5.6592	 0.0
 71	 1	 1	 0.0	 8.576769188919569	 6.3666	 0.0
 72	 1	 1	 0.0	 9.802021930193792	 5.6592	 0.0
 73	 1	 1	 0.0	 11.027274671468016	 6.3666	 0.0
 74	 1	 1	 0.0	 12.25252741274224	 5.6592	 0.0
 75	 1	 1	 0.0	 13.477780154016463	 6.3666	 0.0
 76	 1	 1	 0.0	 14.703032895290686	 5.6592	 0.0
 77	 1	 1	 0.0	 15.928285636564912	 6.3666	 0.0
 78	 1	 1	 0.0	 17.153538377839137	 5.6592	 0.0
 79	 1	 1	 0.0	 18.378791119113362	 6.3666	 0.0
 80	 1	 1	 0.0	 19.604043860387584	 5.6592	 0.0
 81	 1	 1	 0.0	 20.82929660166181	 6.3666	 0.0
 82	 1	 1	 0.0	 22.05454934293603	 5.6592	 0.0
 83	 1	 1	 0.0	 23.279802084210257	 6.3666	 0.0
 84	 1	 11	 0.15	 24.50505482548448	 5.6592	 0.0
 85	 1	 1	 -0.115	 0.0	 8.488800000000001	 0.0
 86	 1	 1	 0.0	 1.225252741274224	 7.781400000000001	 0.0
 87	 1	 1	 0.0	 2.450505482548448	 8.488800000000001	 0.0
 88	 1	 1	 0.0	 3.675758223822672	 7.781400000000001	 0.0
 89	 1	 1	 0.0	 4.901010965096896	 8.488800000000001	 0.0
 90	 1	 1	 0.0	 6.12626370637112	 7.781400000000001	 0.0
 91	 1	 1	 0.0	 7.351516447645344	 8.488800000000001	 0.0
 92	 1	 1	 0.0	 8.576769188919569	 7.781400000000001	 0.0
 93	 1	 1	 0.0	 9.802021930193792	 8.488800000000001	 0.0
 94	 1	 1	 0.0	 11.027274671468016	 7.781400000000001	 0.0
 95	 1	 1	 0.0	 12.25252741274224	 8.488800000000001	 0.0
 96	 1	 1	 0.0	 13.477780154016463	 7.781400000000001	 0.0
 97	 1	 1	 0.0	 14.703032895290686	 8.488800000000001	 0.0
 98	 1	 1	 0.0	 15.928285636564912	 7.781400000000001	 0.0
 99	 1	 1	 0.0	 17.153538377839137	 8.488800000000001	 0.0
 100	 1	 1	 0.0	 18.378791119113362	 7.781400000000001	 0.0
 101	 1	 1	 0.0	 19.604043860387584	 8.488800000000001	 0.0
 102	 1	 1	 0.0	 20.82929660166181	 7.781400000000001	 0.0
 103	 1	 1	 0.0	 22.05454934293603	 8.488800000000001	 0.0
 104	 1	 1	 0.0	 23.279802084210257	 7.781400000000001	 0.0
 105	 1	 1	 -0.115	 24.50505482548448	 8.488800000000001	 0.0
 106	 1	 1	 -0.115	 0.0	 9.9036	 0.0
 107	 1	 1	 0.0	 1.225252741274224	 10.611	 0.0
 108	 1	 1	 0.0	 2.450505482548448	 9.9036	 0.0
 109	 1	 1	 0.0	 3.675758223822672	 10.611	 0.0
 110	 1	 1	 0.0	 4.901010965096896	 9.9036	 0.0
 111	 1	 1	 0.0	 6.12626370637112	 10.611	 0.0
 112	 1	 1	 0.0	 7.351516447645344	 9.9036	 0.0
 113	 1	 1	 0.0	 8.576769188919569	 10.611	 0.0
 114	 1	 1	 0.0	 9.802021930193792	 9.9036	 0.0
 115	 1	 1	 0.0	 11.027274671468016	 10.611	 0.0
 116	 1	 1	 0.0	 12.25252741274224	 9.9036	 0.0
 117	 1	 1	 0.0	 13.477780154016463	 10.611	 0.0
 118	 1	 1	 0.0	 14.703032895290686	 9.9036	 0.0
 119	 1	 1	 0.0	 15.928285636564912	 10.611	 0.0
 120	 1	 1	 0.0	 17.153538377839137	 9.9036	 0.0
 121	 1	 1	 0.0	 18.378791119113362	 10.611	 0.0
 122	 1	 1	 0.0	 19.604043860387584	 9.9036	 0.0
 123	 1	 1	 0.0	 20.82929660166181	 10.611	 0.0
 124	 1	 1	 0.0	 22.05454934293603	 9.9036	 0.0
 125	 1	 1	 0.0	 23.279802084210257	 10.611	 0.0
 126	 1	 1	 -0.115	 24.50505482548448	 9.9036	 0.0
 127	 1	 1	 -0.115	 0.0	 12.733200000000002	 0.0
 128	 1	 1	 0.0	 1.225252741274224	 12.025800000000002	 0.0
 129	 1	 1	 0.0	 2.450505482548448	 12.733200000000002	 0.0
 130	 1	 1	 0.0	 3.675758223822672	 12.025800000000002	 0.0
 131	 1	 1	 0.0	 4.901010965096896	 12.733200000000002	 0.0
 132	 1	 1	 0.0	 6.12626370637112	 12.025800000000002	 0.0
 133	 1	 1	 0.0	 7.351516447645344	 12.733200000000002	 0.0
 134	 1	 1	 0.0	 8.576769188919569	 12.025800000000002	 0.0
 135	 1	 1	 0.0	 9.802021930193792	 12.733200000000002	 0.0
 136	 1	 1	 0.0	 11.027274671468016	 12.025800000000002	 0.0
 137	 1	 1	 0.0	 12.25252741274224	 12.733200000000002	 0.0
 138	 1	 1	 0.0	 13.477780154016463	 12.025800000000002	 0.0
 139	 1	 1	 0.0	 14.703032895290686	 12.733200000000002	 0.0
 140	 1	 1	 0.0	 15.928285636564912	 12.025800000000002	 0.0
 141	 1	 1	 0.0	 17.153538377839137	 12.733200000000002	 0.0
 142	 1	 1	 0.0	 18.378791119113362	 12.025800000000002	 0.0
 143	 1	 1	 0.0	 19.604043860387584	 12.733200000000002	 0.0
 144	 1	 1	 0.0	 20.82929660166181	 12.025800000000002	 0.0
 145	 1	 1	 0.0	 22.05454934293603	 12.733200000000002	 0.0
 146	 1	 1	 0.0	 23.279802084210257	 12.025800000000002	 0.0
 147	 1	 11	 0.15	 24.50505482548448	 12.733200000000002	 0.0
 148	 1	 1	 -0.115	 0.0	 14.148	 0.0
 149	 1	 1	 0.0	 1.225252741274224	 14.8554	 0.0
 150	 1	 1	 0.0	 2.450505482548448	 14.148	 0.0
 151	 1	 1	 0.0	 3.675758223822672	 14.8554	 0.0
 152	 1	 1	 0.0	 4.901010965096896	 14.148	 0.0
 153	 1	 1	 0.0	 6.12626370637112	 14.8554	 0.0
 154	 1	 1	 0.0	 7.351516447645344	 14.148	 0.0
 155	 1	 1	 0.0	 8.576769188919569	 14.8554	 0.0
 156	 1	 1	 0.0	 9.802021930193792	 14.148	 0.0
 157	 1	 1	 0.0	 11.027274671468016	 14.8554	 0.0
 158	 1	 1	 0.0	 12.25252741274224	 14.148	 0.0
 159	 1	 1	 0.0	 13.477780154016463	 14.8554	 0.0
 160	 1	 1	 0.0	 14.703032895290686	 14.148	 0.0
 161	 1	 1	 0.0	 15.928285636564912	 14.8554	 0.0
 162	 1	 1	 0.0	 17.153538377839137	 14.148	 0.0
 163	 1	 1	 0.0	 18.378791119113362	 14.8554	 0.0
 164	 1	 1	 0.0	 19.604043860387584	 14.148	 0.0
 165	 1	 1	 0.0	 20.82929660166181	 14.8554	 0.0
 166	 1	 1	 0.0	 22.05454934293603	 14.148	 0.0
 167	 1	 1	 0.0	 23.279802084210257	 14.8554	 0.0
 168	 1	 11	 0.15	 24.50505482548448	 14.148	 0.0
 169	 1	 11	 0.15	 0.0	 16.977600000000002	 0.0
 170	 1	 1	 0.0	 1.225252741274224	 16.270200000000003	 0.0
 171	 1	 1	 0.0	 2.450505482548448	 16.977600000000002	 0.0
 172	 1	 1	 0.0	 3.675758223822672	 16.270200000000003	 0.0
 173	 1	 1	 0.0	 4.901010965096896	 16.977600000000002	 0.0
 174	 1	 1	 0.0	 6.12626370637112	 16.270200000000003	 0.0
 175	 1	 1	 0.0	 7.351516447645344	 16.977600000000002	 0.0
 176	 1	 1	 0.0	 8.576769188919569	 16.270200000000003	 0.0
 177	 1	 1	 0.0	 9.802021930193792	 16.977600000000002	 0.0
 178	 1	 1	 0.0	 11.027274671468016	 16.270200000000003	 0.0
 179	 1	 1	 0.0	 12.25252741274224	 16.977600000000002	 0.0
 180	 1	 1	 0.0	 13.477780154016463	 16.270200000000003	 0.0
 181	 1	 1	 0.0	 14.703032895290686	 16.977600000000002	 0.0
 182	 1	 1	 0.0	 15.928285636564912	 16.270200000000003	 0.0
 183	 1	 1	 0.0	 17.153538377839137	 16.977600000000002	 0.0
 184	 1	 1	 0.0	 18.378791119113362	 16.270200000000003	 0.0
 185	 1	 1	 0.0	 19.604043860387584	 16.977600000000002	 0.0
 186	 1	 1	 0.0	 20.82929660166181	 16.270200000000003	 0.0
 187	 1	 1	 0.0	 22.05454934293603	 16.977600000000002	 0.0
 188	 1	 1	 0.0	 23.279802084210257	 16.270200000000003	 0.0
 189	 1	 1	 -0.115	 24.50505482548448	 16.977600000000002	 0.0
 190	 1	 11	 0.15	 0.0	 18.392400000000002	 0.0
 191	 1	 1	 0.0	 1.225252741274224	 19.099800000000002	 0.0
 192	 1	 1	 0.0	 2.450505482548448	 18.392400000000002	 0.0
 193	 1	 1	 0.0	 3.675758223822672	 19.099800000000002	 0.0
 194	 1	 1	 0.0	 4.901010965096896	 18.392400000000002	 0.0
 195	 1	 1	 0.0	 6.12626370637112	 19.099800000000002	 0.0
 196	 1	 1	 0.0	 7.351516447645344	 18.392400000000002	 0.0
 197	 1	 1	 0.0	 8.576769188919569	 19.099800000000002	 0.0
 198	 1	 1	 0.0	 9.802021930193792	 18.392400000000002	 0.0
 199	 1	 1	 0.0	 11.027274671468016	 19.099800000000002	 0.0
 200	 1	 1	 0.0	 12.25252741274224	 18.392400000000002	 0.0
 201	 1	 1	 0.0	 13.477780154016463	 19.099800000000002	 0.0
 202	 1	 1	 0.0	 14.703032895290686	 18.392400000000002	 0.0
 203	 1	 1	 0.0	 15.928285636564912	 19.099800000000002	 0.0
 204	 1	 1	 0.0	 17.153538377839137	 18.392400000000002	 0.0
 205	 1	 1	 0.0	 18.378791119113362	 19.099800000000002	 0.0
 206	 1	 1	 0.0	 19.604043860387584	 18.392400000000002	 0.0
 207	 1	 1	 0.0	 20.82929660166181	 19.099800000000002	 0.0
 208	 1	 1	 0.0	 22.05454934293603	 18.392400000000002	 0.0
 209	 1	 1	 0.0	 23.279802084210257	 19.099800000000002	 0.0
 210	 1	 11	 0.15	 24.50505482548448	 18.392400000000002	 0.0
 211	 1	 1	 -0.115	 0.0	 21.222	 0.0
 212	 1	 1	 0.0	 1.225252741274224	 20.5146	 0.0
 213	 1	 1	 0.0	 2.450505482548448	 21.222	 0.0
 214	 1	 1	 0.0	 3.675758223822672	 20.5146	 0.0
 215	 1	 1	 0.0	 4.901010965096896	 21.222	 0.0
 216	 1	 1	 0.0	 6.12626370637112	 20.5146	 0.0
 217	 1	 1	 0.0	 7.351516447645344	 21.222	 0.0
 218	 1	 1	 0.0	 8.576769188919569	 20.5146	 0.0
 219	 1	 1	 0.0	 9.802021930193792	 21.222	 0.0
 220	 1	 1	 0.0	 11.027274671468016	 20.5146	 0.0
 221	 1	 1	 0.0	 12.25252741274224	 21.222	 0.0
 222	 1	 1	 0.0	 13.477780154016463	 20.5146	 0.0
 223	 1	 1	 0.0	 14.703032895290686	 21.222	 0.0
 224	 1	 1	 0.0	 15.928285636564912	 20.5146	 0.0
 225	 1	 1	 0.0	 17.153538377839137	 21.222	 0.0
 226	 1	 1	 0.0	 18.378791119113362	 20.5146	 0.0
 227	 1	 1	 0.0	 19.604043860387584	 21.222	 0.0
 228	 1	 1	 0.0	 20.82929660166181	 20.5146	 0.0
 229	 1	 1	 0.0	 22.05454934293603	 21.222	 0.0
 230	 1	 1	 0.0	 23.279802084210257	 20.5146	 0.0
 231	 1	 1	 -0.115	 24.50505482548448	 21.222	 0.0
 232	 1	 1	 -0.115	 0.0	 22.6368	 0.0
 233	 1	 1	 -0.115	 1.225252741274224	 23.3442	 0.0
 234	 1	 1	 0.0	 2.450505482548448	 22.6368	 0.0
 235	 1	 1	 -0.115	 3.675758223822672	 23.3442	 0.0
 236	 1	 1	 0.0	 4.901010965096896	 22.6368	 0.0
 237	 1	 1	 -0.115	 6.12626370637112	 23.3442	 0.0
 238	 1	 1	 0.0	 7.351516447645344	 22.6368	 0.0
 239	 1	 1	 -0.115	 8.576769188919569	 23.3442	 0.0
 240	 1	 1	 0.0	 9.802021930193792	 22.6368	 0.0
 241	 1	 11	 0.15	 11.027274671468016	 23.3442	 0.0
 242	 1	 1	 0.0	 12.25252741274224	 22.6368	 0.0
 243	 1	 1	 -0.115	 13.477780154016463	 23.3442	 0.0
 244	 1	 1	 0.0	 14.703032895290686	 22.6368	 0.0
 245	 1	 1	 -0.115	 15.928285636564912	 23.3442	 0.0
 246	 1	 1	 0.0	 17.153538377839137	 22.6368	 0.0
 247	 1	 1	 -0.115	 18.378791119113362	 23.3442	 0.0
 248	 1	 1	 0.0	 19.604043860387584	 22.6368	 0.0
 249	 1	 1	 -0.115	 20.82929660166181	 23.3442	 0.0
 250	 1	 1	 0.0	 22.05454934293603	 22.6368	 0.0
 251	 1	 1	 -0.115	 23.279802084210257	 23.3442	 0.0
 252	 1	 1	 -0.115	 24.50505482548448	 22.6368	 0.0
 253	 1	 2	 0.115	 1.225252741274224	 -1.7844	 0.0
 254	 1	 2	 0.115	 3.675758223822672	 -1.7844	 0.0
 255	 1	 2	 0.115	 6.12626370637112	 -1.7844	 0.0
 256	 1	 7	 -0.585	 8.576769188919569	 -2.1074	 0.0
 257	 1	 2	 0.115	 11.027274671468016	 -1.7844	 0.0
 258	 1	 2	 0.115	 13.477780154016463	 -1.7844	 0.0
 259	 1	 2	 0.115	 15.928285636564912	 -1.7844	 0.0
 260	 1	 2	 0.115	 18.378791119113362	 -1.7844	 0.0
 261	 1	 2	 0.115	 20.82929660166181	 -1.7844	 0.0
 262	 1	 2	 0.115	 23.279802084210257	 -1.7844	 0.0
 263	 1	 2	 0.115	 1.225252741274224	 24.4212	 0.0
 264	 1	 2	 0.115	 3.675758223822672	 24.4212	 0.0
 265	 1	 2	 0.115	 6.12626370637112	 24.4212	 0.0
 266	 1	 2	 0.115	 8.576769188919569	 24.4212	 0.0
 267	 1	 7	 -0.585	 11.027274671468016	 24.7442	 0.0
 268	 1	 2	 0.115	 13.477780154016463	 24.4212	 0.0
 269	 1	 2	 0.115	 15.928285636564912	 24.4212	 0.0
 270	 1	 2	 0.115	 18.378791119113362	 24.4212	 0.0
 271	 1	 2	 0.115	 20.82929660166181	 24.4212	 0.0
 272	 1	 2	 0.115	 23.279802084210257	 24.4212	 0.0
 273	 1	 2	 0.115	 -0.9327093598758405	 -0.5385	 0.0
 274	 1	 2	 0.115	 -0.9327093598758405	 1.9533	 0.0
 275	 1	 7	 -0.585	 25.717490390782693	 -0.7000000000000001	 0.0
 276	 1	 2	 0.115	 25.43776418536032	 1.9533	 0.0
 277	 1	 7	 -0.585	 -1.2124355652982142	 3.5444000000000004	 0.0
 278	 1	 7	 -0.585	 -1.2124355652982142	 6.3592	 0.0
 279	 1	 2	 0.115	 25.43776418536032	 3.7059000000000006	 0.0
 280	 1	 7	 -0.585	 25.717490390782693	 6.3592	 0.0
 281	 1	 2	 0.115	 -0.9327093598758405	 7.950300000000001	 0.0
 282	 1	 2	 0.115	 -0.9327093598758405	 10.4421	 0.0
 283	 1	 2	 0.115	 25.43776418536032	 7.950300000000001	 0.0
 284	 1	 2	 0.115	 25.43776418536032	 10.4421	 0.0
 285	 1	 2	 0.115	 -0.9327093598758405	 12.194700000000001	 0.0
 286	 1	 2	 0.115	 -0.9327093598758405	 14.686499999999999	 0.0
 287	 1	 7	 -0.585	 25.717490390782693	 12.0332	 0.0
 288	 1	 7	 -0.585	 25.717490390782693	 14.847999999999999	 0.0
 289	 1	 7	 -0.585	 -1.2124355652982146	 16.277600000000003	 0.0
 290	 1	 7	 -0.585	 -1.2124355652982146	 19.0924	 0.0
 291	 1	 2	 0.115	 25.43776418536032	 16.439100000000003	 0.0
 292	 1	 7	 -0.585	 25.717490390782693	 19.0924	 0.0
 293	 1	 2	 0.115	 -0.9327093598758405	 20.683500000000002	 0.0
 294	 1	 2	 0.115	 -0.9327093598758405	 23.1753	 0.0
 295	 1	 2	 0.115	 25.43776418536032	 20.683500000000002	 0.0
 296	 1	 2	 0.115	 25.43776418536032	 23.1753	 0.0
 297	 1	 5	 0.435	 8.576769188919569	 -2.8074000000000003	 0.7
 298	 1	 5	 0.435	 11.027274671468016	 25.4442	 -0.7
 299	 1	 5	 0.435	 26.3237081734318	 -1.05	 -0.7
 300	 1	 5	 0.435	 -1.8186533479473213	 3.1944000000000004	 0.7
 301	 1	 5	 0.435	 -1.8186533479473213	 6.7092	 -0.7
 302	 1	 5	 0.435	 26.3237081734318	 6.7092	 -0.7
 303	 1	 5	 0.435	 26.3237081734318	 11.683200000000001	 -0.7
 304	 1	 5	 0.435	 26.3237081734318	 15.197999999999999	 0.7
 305	 1	 5	 0.435	 -1.818653347947322	 15.927600000000004	 0.7
 306	 1	 5	 0.435	 -1.818653347947322	 19.4424	 0.7
 307	 1	 5	 0.435	 26.3237081734318	 19.4424	 -0.7
 
 Bonds 
 
1	 1	 1	 2
2	 1	 2	 3
3	 1	 3	 4
4	 1	 4	 5
5	 1	 5	 6
6	 1	 6	 7
7	 2	 7	 8
8	 2	 8	 9
9	 1	 9	 10
10	 1	 10	 11
11	 1	 11	 12
12	 1	 12	 13
13	 1	 13	 14
14	 1	 14	 15
15	 1	 15	 16
16	 1	 16	 17
17	 1	 17	 18
18	 1	 18	 19
19	 1	 19	 20
20	 2	 20	 21
21	 1	 22	 23
22	 1	 23	 24
23	 1	 24	 25
24	 1	 25	 26
25	 1	 26	 27
26	 1	 27	 28
27	 1	 28	 29
28	 1	 29	 30
29	 1	 30	 31
30	 1	 31	 32
31	 1	 32	 33
32	 1	 33	 34
33	 1	 34	 35
34	 1	 35	 36
35	 1	 36	 37
36	 1	 37	 38
37	 1	 38	 39
38	 1	 39	 40
39	 1	 40	 41
40	 1	 41	 42
41	 2	 43	 44
42	 1	 44	 45
43	 1	 45	 46
44	 1	 46	 47
45	 1	 47	 48
46	 1	 48	 49
47	 1	 49	 50
48	 1	 50	 51
49	 1	 51	 52
50	 1	 52	 53
51	 1	 53	 54
52	 1	 54	 55
53	 1	 55	 56
54	 1	 56	 57
55	 1	 57	 58
56	 1	 58	 59
57	 1	 59	 60
58	 1	 60	 61
59	 1	 61	 62
60	 1	 62	 63
61	 2	 64	 65
62	 1	 65	 66
63	 1	 66	 67
64	 1	 67	 68
65	 1	 68	 69
66	 1	 69	 70
67	 1	 70	 71
68	 1	 71	 72
69	 1	 72	 73
70	 1	 73	 74
71	 1	 74	 75
72	 1	 75	 76
73	 1	 76	 77
74	 1	 77	 78
75	 1	 78	 79
76	 1	 79	 80
77	 1	 80	 81
78	 1	 81	 82
79	 1	 82	 83
80	 2	 83	 84
81	 1	 85	 86
82	 1	 86	 87
83	 1	 87	 88
84	 1	 88	 89
85	 1	 89	 90
86	 1	 90	 91
87	 1	 91	 92
88	 1	 92	 93
89	 1	 93	 94
90	 1	 94	 95
91	 1	 95	 96
92	 1	 96	 97
93	 1	 97	 98
94	 1	 98	 99
95	 1	 99	 100
96	 1	 100	 101
97	 1	 101	 102
98	 1	 102	 103
99	 1	 103	 104
100	 1	 104	 105
101	 1	 106	 107
102	 1	 107	 108
103	 1	 108	 109
104	 1	 109	 110
105	 1	 110	 111
106	 1	 111	 112
107	 1	 112	 113
108	 1	 113	 114
109	 1	 114	 115
110	 1	 115	 116
111	 1	 116	 117
112	 1	 117	 118
113	 1	 118	 119
114	 1	 119	 120
115	 1	 120	 121
116	 1	 121	 122
117	 1	 122	 123
118	 1	 123	 124
119	 1	 124	 125
120	 1	 125	 126
121	 1	 127	 128
122	 1	 128	 129
123	 1	 129	 130
124	 1	 130	 131
125	 1	 131	 132
126	 1	 132	 133
127	 1	 133	 134
128	 1	 134	 135
129	 1	 135	 136
130	 1	 136	 137
131	 1	 137	 138
132	 1	 138	 139
133	 1	 139	 140
134	 1	 140	 141
135	 1	 141	 142
136	 1	 142	 143
137	 1	 143	 144
138	 1	 144	 145
139	 1	 145	 146
140	 2	 146	 147
141	 1	 148	 149
142	 1	 149	 150
143	 1	 150	 151
144	 1	 151	 152
145	 1	 152	 153
146	 1	 153	 154
147	 1	 154	 155
148	 1	 155	 156
149	 1	 156	 157
150	 1	 157	 158
151	 1	 158	 159
152	 1	 159	 160
153	 1	 160	 161
154	 1	 161	 162
155	 1	 162	 163
156	 1	 163	 164
157	 1	 164	 165
158	 1	 165	 166
159	 1	 166	 167
160	 2	 167	 168
161	 2	 169	 170
162	 1	 170	 171
163	 1	 171	 172
164	 1	 172	 173
165	 1	 173	 174
166	 1	 174	 175
167	 1	 175	 176
168	 1	 176	 177
169	 1	 177	 178
170	 1	 178	 179
171	 1	 179	 180
172	 1	 180	 181
173	 1	 181	 182
174	 1	 182	 183
175	 1	 183	 184
176	 1	 184	 185
177	 1	 185	 186
178	 1	 186	 187
179	 1	 187	 188
180	 1	 188	 189
181	 2	 190	 191
182	 1	 191	 192
183	 1	 192	 193
184	 1	 193	 194
185	 1	 194	 195
186	 1	 195	 196
187	 1	 196	 197
188	 1	 197	 198
189	 1	 198	 199
190	 1	 199	 200
191	 1	 200	 201
192	 1	 201	 202
193	 1	 202	 203
194	 1	 203	 204
195	 1	 204	 205
196	 1	 205	 206
197	 1	 206	 207
198	 1	 207	 208
199	 1	 208	 209
200	 2	 209	 210
201	 1	 211	 212
202	 1	 212	 213
203	 1	 213	 214
204	 1	 214	 215
205	 1	 215	 216
206	 1	 216	 217
207	 1	 217	 218
208	 1	 218	 219
209	 1	 219	 220
210	 1	 220	 221
211	 1	 221	 222
212	 1	 222	 223
213	 1	 223	 224
214	 1	 224	 225
215	 1	 225	 226
216	 1	 226	 227
217	 1	 227	 228
218	 1	 228	 229
219	 1	 229	 230
220	 1	 230	 231
221	 1	 232	 233
222	 1	 233	 234
223	 1	 234	 235
224	 1	 235	 236
225	 1	 236	 237
226	 1	 237	 238
227	 1	 238	 239
228	 1	 239	 240
229	 2	 240	 241
230	 2	 241	 242
231	 1	 242	 243
232	 1	 243	 244
233	 1	 244	 245
234	 1	 245	 246
235	 1	 246	 247
236	 1	 247	 248
237	 1	 248	 249
238	 1	 249	 250
239	 1	 250	 251
240	 1	 251	 252
241	 1	 1	 22
242	 1	 3	 24
243	 1	 5	 26
244	 1	 7	 28
245	 1	 9	 30
246	 1	 11	 32
247	 1	 13	 34
248	 1	 15	 36
249	 1	 17	 38
250	 1	 19	 40
251	 2	 21	 42
252	 1	 23	 44
253	 1	 25	 46
254	 1	 27	 48
255	 1	 29	 50
256	 1	 31	 52
257	 1	 33	 54
258	 1	 35	 56
259	 1	 37	 58
260	 1	 39	 60
261	 1	 41	 62
262	 3	 43	 64
263	 1	 45	 66
264	 1	 47	 68
265	 1	 49	 70
266	 1	 51	 72
267	 1	 53	 74
268	 1	 55	 76
269	 1	 57	 78
270	 1	 59	 80
271	 1	 61	 82
272	 2	 63	 84
273	 1	 65	 86
274	 1	 67	 88
275	 1	 69	 90
276	 1	 71	 92
277	 1	 73	 94
278	 1	 75	 96
279	 1	 77	 98
280	 1	 79	 100
281	 1	 81	 102
282	 1	 83	 104
283	 1	 85	 106
284	 1	 87	 108
285	 1	 89	 110
286	 1	 91	 112
287	 1	 93	 114
288	 1	 95	 116
289	 1	 97	 118
290	 1	 99	 120
291	 1	 101	 122
292	 1	 103	 124
293	 1	 105	 126
294	 1	 107	 128
295	 1	 109	 130
296	 1	 111	 132
297	 1	 113	 134
298	 1	 115	 136
299	 1	 117	 138
300	 1	 119	 140
301	 1	 121	 142
302	 1	 123	 144
303	 1	 125	 146
304	 1	 127	 148
305	 1	 129	 150
306	 1	 131	 152
307	 1	 133	 154
308	 1	 135	 156
309	 1	 137	 158
310	 1	 139	 160
311	 1	 141	 162
312	 1	 143	 164
313	 1	 145	 166
314	 3	 147	 168
315	 1	 149	 170
316	 1	 151	 172
317	 1	 153	 174
318	 1	 155	 176
319	 1	 157	 178
320	 1	 159	 180
321	 1	 161	 182
322	 1	 163	 184
323	 1	 165	 186
324	 1	 167	 188
325	 3	 169	 190
326	 1	 171	 192
327	 1	 173	 194
328	 1	 175	 196
329	 1	 177	 198
330	 1	 179	 200
331	 1	 181	 202
332	 1	 183	 204
333	 1	 185	 206
334	 1	 187	 208
335	 2	 189	 210
336	 1	 191	 212
337	 1	 193	 214
338	 1	 195	 216
339	 1	 197	 218
340	 1	 199	 220
341	 1	 201	 222
342	 1	 203	 224
343	 1	 205	 226
344	 1	 207	 228
345	 1	 209	 230
346	 1	 211	 232
347	 1	 213	 234
348	 1	 215	 236
349	 1	 217	 238
350	 1	 219	 240
351	 1	 221	 242
352	 1	 223	 244
353	 1	 225	 246
354	 1	 227	 248
355	 1	 229	 250
356	 1	 231	 252
357	 4	 2	 253
358	 4	 4	 254
359	 4	 6	 255
360	 5	 8	 256
361	 4	 10	 257
362	 4	 12	 258
363	 4	 14	 259
364	 4	 16	 260
365	 4	 18	 261
366	 4	 20	 262
367	 4	 233	 263
368	 4	 235	 264
369	 4	 237	 265
370	 4	 239	 266
371	 5	 241	 267
372	 4	 243	 268
373	 4	 245	 269
374	 4	 247	 270
375	 4	 249	 271
376	 4	 251	 272
377	 4	 1	 273
378	 4	 22	 274
379	 5	 21	 275
380	 4	 42	 276
381	 5	 43	 277
382	 5	 64	 278
383	 4	 63	 279
384	 5	 84	 280
385	 4	 85	 281
386	 4	 106	 282
387	 4	 105	 283
388	 4	 126	 284
389	 4	 127	 285
390	 4	 148	 286
391	 5	 147	 287
392	 5	 168	 288
393	 5	 169	 289
394	 5	 190	 290
395	 4	 189	 291
396	 5	 210	 292
397	 4	 211	 293
398	 4	 232	 294
399	 4	 231	 295
400	 4	 252	 296
401	 6	 256	 297
402	 6	 267	 298
403	 6	 275	 299
404	 6	 277	 300
405	 6	 278	 301
406	 6	 280	 302
407	 6	 287	 303
408	 6	 288	 304
409	 6	 289	 305
410	 6	 290	 306
411	 6	 292	 307

 Angles 
 
1	 1	 273	 1	 2
2	 1	 273	 1	 22
3	 2	 2	 1	 22
4	 2	 1	 2	 3
5	 1	 1	 2	 253
6	 1	 3	 2	 253
7	 2	 2	 3	 4
8	 2	 2	 3	 24
9	 2	 4	 3	 24
10	 2	 3	 4	 5
11	 1	 3	 4	 254
12	 1	 5	 4	 254
13	 2	 26	 5	 4
14	 2	 26	 5	 6
15	 2	 4	 5	 6
16	 1	 5	 6	 255
17	 2	 5	 6	 7
18	 1	 255	 6	 7
19	 2	 28	 7	 6
20	 3	 28	 7	 8
21	 3	 6	 7	 8
22	 4	 9	 8	 7
23	 5	 9	 8	 256
24	 5	 7	 8	 256
25	 2	 10	 9	 30
26	 3	 10	 9	 8
27	 3	 30	 9	 8
28	 1	 9	 10	 257
29	 2	 9	 10	 11
30	 1	 257	 10	 11
31	 2	 10	 11	 12
32	 2	 10	 11	 32
33	 2	 12	 11	 32
34	 1	 258	 12	 11
35	 1	 258	 12	 13
36	 2	 11	 12	 13
37	 2	 34	 13	 12
38	 2	 34	 13	 14
39	 2	 12	 13	 14
40	 1	 259	 14	 13
41	 1	 259	 14	 15
42	 2	 13	 14	 15
43	 2	 36	 15	 14
44	 2	 36	 15	 16
45	 2	 14	 15	 16
46	 1	 17	 16	 260
47	 2	 17	 16	 15
48	 1	 260	 16	 15
49	 2	 18	 17	 38
50	 2	 18	 17	 16
51	 2	 38	 17	 16
52	 2	 17	 18	 19
53	 1	 17	 18	 261
54	 1	 19	 18	 261
55	 2	 18	 19	 20
56	 2	 18	 19	 40
57	 2	 20	 19	 40
58	 3	 19	 20	 21
59	 1	 19	 20	 262
60	 6	 21	 20	 262
61	 5	 42	 21	 275
62	 4	 42	 21	 20
63	 5	 275	 21	 20
64	 1	 1	 22	 274
65	 2	 1	 22	 23
66	 1	 274	 22	 23
67	 2	 44	 23	 22
68	 2	 44	 23	 24
69	 2	 22	 23	 24
70	 2	 25	 24	 3
71	 2	 25	 24	 23
72	 2	 3	 24	 23
73	 2	 26	 25	 46
74	 2	 26	 25	 24
75	 2	 46	 25	 24
76	 2	 25	 26	 27
77	 2	 25	 26	 5
78	 2	 27	 26	 5
79	 2	 26	 27	 28
80	 2	 26	 27	 48
81	 2	 28	 27	 48
82	 2	 27	 28	 29
83	 2	 27	 28	 7
84	 2	 29	 28	 7
85	 2	 50	 29	 28
86	 2	 50	 29	 30
87	 2	 28	 29	 30
88	 2	 9	 30	 29
89	 2	 9	 30	 31
90	 2	 29	 30	 31
91	 2	 52	 31	 30
92	 2	 52	 31	 32
93	 2	 30	 31	 32
94	 2	 33	 32	 11
95	 2	 33	 32	 31
96	 2	 11	 32	 31
97	 2	 34	 33	 54
98	 2	 34	 33	 32
99	 2	 54	 33	 32
100	 2	 33	 34	 35
101	 2	 33	 34	 13
102	 2	 35	 34	 13
103	 2	 34	 35	 36
104	 2	 34	 35	 56
105	 2	 36	 35	 56
106	 2	 35	 36	 37
107	 2	 35	 36	 15
108	 2	 37	 36	 15
109	 2	 58	 37	 36
110	 2	 58	 37	 38
111	 2	 36	 37	 38
112	 2	 17	 38	 37
113	 2	 17	 38	 39
114	 2	 37	 38	 39
115	 2	 60	 39	 38
116	 2	 60	 39	 40
117	 2	 38	 39	 40
118	 2	 41	 40	 19
119	 2	 41	 40	 39
120	 2	 19	 40	 39
121	 2	 42	 41	 62
122	 2	 42	 41	 40
123	 2	 62	 41	 40
124	 1	 41	 42	 276
125	 3	 41	 42	 21
126	 6	 276	 42	 21
127	 5	 44	 43	 277
128	 7	 44	 43	 64
129	 8	 277	 43	 64
130	 3	 43	 44	 45
131	 3	 43	 44	 23
132	 2	 45	 44	 23
133	 2	 66	 45	 44
134	 2	 66	 45	 46
135	 2	 44	 45	 46
136	 2	 25	 46	 45
137	 2	 25	 46	 47
138	 2	 45	 46	 47
139	 2	 68	 47	 46
140	 2	 68	 47	 48
141	 2	 46	 47	 48
142	 2	 49	 48	 27
143	 2	 49	 48	 47
144	 2	 27	 48	 47
145	 2	 50	 49	 70
146	 2	 50	 49	 48
147	 2	 70	 49	 48
148	 2	 49	 50	 51
149	 2	 49	 50	 29
150	 2	 51	 50	 29
151	 2	 50	 51	 52
152	 2	 50	 51	 72
153	 2	 52	 51	 72
154	 2	 51	 52	 53
155	 2	 51	 52	 31
156	 2	 53	 52	 31
157	 2	 74	 53	 52
158	 2	 74	 53	 54
159	 2	 52	 53	 54
160	 2	 33	 54	 53
161	 2	 33	 54	 55
162	 2	 53	 54	 55
163	 2	 76	 55	 54
164	 2	 76	 55	 56
165	 2	 54	 55	 56
166	 2	 57	 56	 35
167	 2	 57	 56	 55
168	 2	 35	 56	 55
169	 2	 58	 57	 78
170	 2	 58	 57	 56
171	 2	 78	 57	 56
172	 2	 57	 58	 59
173	 2	 57	 58	 37
174	 2	 59	 58	 37
175	 2	 58	 59	 60
176	 2	 58	 59	 80
177	 2	 60	 59	 80
178	 2	 59	 60	 61
179	 2	 59	 60	 39
180	 2	 61	 60	 39
181	 2	 82	 61	 60
182	 2	 82	 61	 62
183	 2	 60	 61	 62
184	 2	 41	 62	 61
185	 2	 41	 62	 63
186	 2	 61	 62	 63
187	 3	 84	 63	 62
188	 6	 84	 63	 279
189	 1	 62	 63	 279
190	 7	 65	 64	 43
191	 5	 65	 64	 278
192	 8	 43	 64	 278
193	 2	 66	 65	 86
194	 3	 66	 65	 64
195	 3	 86	 65	 64
196	 2	 65	 66	 67
197	 2	 65	 66	 45
198	 2	 67	 66	 45
199	 2	 66	 67	 68
200	 2	 66	 67	 88
201	 2	 68	 67	 88
202	 2	 67	 68	 69
203	 2	 67	 68	 47
204	 2	 69	 68	 47
205	 2	 90	 69	 68
206	 2	 90	 69	 70
207	 2	 68	 69	 70
208	 2	 49	 70	 69
209	 2	 49	 70	 71
210	 2	 69	 70	 71
211	 2	 92	 71	 70
212	 2	 92	 71	 72
213	 2	 70	 71	 72
214	 2	 73	 72	 51
215	 2	 73	 72	 71
216	 2	 51	 72	 71
217	 2	 74	 73	 94
218	 2	 74	 73	 72
219	 2	 94	 73	 72
220	 2	 73	 74	 75
221	 2	 73	 74	 53
222	 2	 75	 74	 53
223	 2	 74	 75	 76
224	 2	 74	 75	 96
225	 2	 76	 75	 96
226	 2	 75	 76	 77
227	 2	 75	 76	 55
228	 2	 77	 76	 55
229	 2	 98	 77	 76
230	 2	 98	 77	 78
231	 2	 76	 77	 78
232	 2	 57	 78	 77
233	 2	 57	 78	 79
234	 2	 77	 78	 79
235	 2	 100	 79	 78
236	 2	 100	 79	 80
237	 2	 78	 79	 80
238	 2	 81	 80	 59
239	 2	 81	 80	 79
240	 2	 59	 80	 79
241	 2	 82	 81	 102
242	 2	 82	 81	 80
243	 2	 102	 81	 80
244	 2	 81	 82	 83
245	 2	 81	 82	 61
246	 2	 83	 82	 61
247	 3	 82	 83	 84
248	 2	 82	 83	 104
249	 3	 84	 83	 104
250	 4	 83	 84	 63
251	 5	 83	 84	 280
252	 5	 63	 84	 280
253	 1	 281	 85	 106
254	 1	 281	 85	 86
255	 2	 106	 85	 86
256	 2	 65	 86	 85
257	 2	 65	 86	 87
258	 2	 85	 86	 87
259	 2	 108	 87	 86
260	 2	 108	 87	 88
261	 2	 86	 87	 88
262	 2	 89	 88	 67
263	 2	 89	 88	 87
264	 2	 67	 88	 87
265	 2	 90	 89	 110
266	 2	 90	 89	 88
267	 2	 110	 89	 88
268	 2	 89	 90	 91
269	 2	 89	 90	 69
270	 2	 91	 90	 69
271	 2	 90	 91	 92
272	 2	 90	 91	 112
273	 2	 92	 91	 112
274	 2	 91	 92	 93
275	 2	 91	 92	 71
276	 2	 93	 92	 71
277	 2	 114	 93	 92
278	 2	 114	 93	 94
279	 2	 92	 93	 94
280	 2	 73	 94	 93
281	 2	 73	 94	 95
282	 2	 93	 94	 95
283	 2	 116	 95	 94
284	 2	 116	 95	 96
285	 2	 94	 95	 96
286	 2	 97	 96	 75
287	 2	 97	 96	 95
288	 2	 75	 96	 95
289	 2	 98	 97	 118
290	 2	 98	 97	 96
291	 2	 118	 97	 96
292	 2	 97	 98	 99
293	 2	 97	 98	 77
294	 2	 99	 98	 77
295	 2	 98	 99	 100
296	 2	 98	 99	 120
297	 2	 100	 99	 120
298	 2	 99	 100	 101
299	 2	 99	 100	 79
300	 2	 101	 100	 79
301	 2	 122	 101	 100
302	 2	 122	 101	 102
303	 2	 100	 101	 102
304	 2	 81	 102	 101
305	 2	 81	 102	 103
306	 2	 101	 102	 103
307	 2	 124	 103	 102
308	 2	 124	 103	 104