# GO
224 atoms 
291 bonds 
528 angles 
984 dihedrals 
170 impropers 

354 atom types 
6 bond types 
10 angle types 
18 dihedral types 
7 improper types 

0.0	122.0	 xlo xhi 
0.0	120.0	 ylo yhi 
0.0	3.4827	 zlo zhi 


 Masses 
 
1	12.011
2	1.008
3	12.011
4	15.999
5	1.008
6	15.999
7	15.999
8	12.011
9	15.999
10	15.999
11	12.011
12	12.011
13	15.999
354	40.08
349	22.99

 Pair Coeffs 
 
1	0.07	3.55
2	0.03	2.42
3	0.066	3.5
4	0.17	3.12
5	0.0	0.0
6	0.14	2.9
7	0.17	3.07
8	0.105	3.75
9	0.21	2.96
10	0.17	3.0
11	0.07	3.55
12	0.105	3.75
13	0.21	2.96
354	0.449657	2.412031
349	0.0005	4.07

 Bond Coeffs 
 
1	469.0	1.4
2	469.0	1.4
3	469.0	1.4
4	450.0	1.364
5	367.0	1.08
6	553.0	0.945

 Angle Coeffs 
 
1	35.0	120.0
2	63.0	120.0
3	35.0	120.0
4	63.0	120.0
5	70.0	120.0
6	63.0	120.0
7	63.0	120.0
8	70.0	120.0
9	63.0	120.0
10	35.0	113.0

 Dihedral Coeffs 
 
1	0.0	7.25	0.0	0.0
2	0.0	7.25	0.0	0.0
3	0.0	7.25	0.0	0.0
4	0.0	7.25	0.0	0.0
5	0.0	7.25	0.0	0.0
6	0.0	7.25	0.0	0.0
7	0.0	7.25	0.0	0.0
8	0.0	7.25	0.0	0.0
9	0.0	7.25	0.0	0.0
10	0.0	7.25	0.0	0.0
11	0.0	7.25	0.0	0.0
12	0.0	7.25	0.0	0.0
13	0.0	7.25	0.0	0.0
14	0.0	7.25	0.0	0.0
15	0.0	7.25	0.0	0.0
16	0.0	7.25	0.0	0.0
17	0.0	1.682	0.0	0.0
18	0.0	1.682	0.0	0.0

 Improper Coeffs 
 
1	5.0	180.0
2	5.0	180.0
3	5.0	180.0
4	5.0	180.0
5	5.0	180.0
6	5.0	180.0
7	5.0	180.0

 Atoms 
 
1	 1	 1	 -0.115	 0.0	 0.0	 0.0
 2	 1	 11	 0.15	 1.225252741274224	 -0.7074	 0.0
 3	 1	 1	 0.0	 2.450505482548448	 0.0	 0.0
 4	 1	 11	 0.15	 3.675758223822672	 -0.7074	 0.0
 5	 1	 1	 0.0	 4.901010965096896	 0.0	 0.0
 6	 1	 1	 -0.115	 6.12626370637112	 -0.7074	 0.0
 7	 1	 1	 0.0	 7.351516447645344	 0.0	 0.0
 8	 1	 1	 -0.115	 8.576769188919569	 -0.7074	 0.0
 9	 1	 1	 0.0	 9.802021930193792	 0.0	 0.0
 10	 1	 11	 0.15	 11.027274671468016	 -0.7074	 0.0
 11	 1	 1	 0.0	 12.25252741274224	 0.0	 0.0
 12	 1	 1	 -0.115	 13.477780154016463	 -0.7074	 0.0
 13	 1	 1	 0.0	 14.703032895290686	 0.0	 0.0
 14	 1	 1	 -0.115	 15.928285636564912	 -0.7074	 0.0
 15	 1	 1	 0.0	 17.153538377839137	 0.0	 0.0
 16	 1	 11	 0.15	 18.378791119113362	 -0.7074	 0.0
 17	 1	 1	 -0.115	 19.604043860387584	 0.0	 0.0
 18	 1	 1	 -0.115	 0.0	 1.4148	 0.0
 19	 1	 1	 0.0	 1.225252741274224	 2.1222000000000003	 0.0
 20	 1	 1	 0.0	 2.450505482548448	 1.4148	 0.0
 21	 1	 1	 0.0	 3.675758223822672	 2.1222000000000003	 0.0
 22	 1	 1	 0.0	 4.901010965096896	 1.4148	 0.0
 23	 1	 1	 0.0	 6.12626370637112	 2.1222000000000003	 0.0
 24	 1	 1	 0.0	 7.351516447645344	 1.4148	 0.0
 25	 1	 1	 0.0	 8.576769188919569	 2.1222000000000003	 0.0
 26	 1	 1	 0.0	 9.802021930193792	 1.4148	 0.0
 27	 1	 1	 0.0	 11.027274671468016	 2.1222000000000003	 0.0
 28	 1	 1	 0.0	 12.25252741274224	 1.4148	 0.0
 29	 1	 1	 0.0	 13.477780154016463	 2.1222000000000003	 0.0
 30	 1	 1	 0.0	 14.703032895290686	 1.4148	 0.0
 31	 1	 1	 0.0	 15.928285636564912	 2.1222000000000003	 0.0
 32	 1	 1	 0.0	 17.153538377839137	 1.4148	 0.0
 33	 1	 1	 0.0	 18.378791119113362	 2.1222000000000003	 0.0
 34	 1	 11	 0.15	 19.604043860387584	 1.4148	 0.0
 35	 1	 1	 -0.115	 0.0	 4.244400000000001	 0.0
 36	 1	 1	 0.0	 1.225252741274224	 3.537000000000001	 0.0
 37	 1	 1	 0.0	 2.450505482548448	 4.244400000000001	 0.0
 38	 1	 1	 0.0	 3.675758223822672	 3.537000000000001	 0.0
 39	 1	 1	 0.0	 4.901010965096896	 4.244400000000001	 0.0
 40	 1	 1	 0.0	 6.12626370637112	 3.537000000000001	 0.0
 41	 1	 1	 0.0	 7.351516447645344	 4.244400000000001	 0.0
 42	 1	 1	 0.0	 8.576769188919569	 3.537000000000001	 0.0
 43	 1	 1	 0.0	 9.802021930193792	 4.244400000000001	 0.0
 44	 1	 1	 0.0	 11.027274671468016	 3.537000000000001	 0.0
 45	 1	 1	 0.0	 12.25252741274224	 4.244400000000001	 0.0
 46	 1	 1	 0.0	 13.477780154016463	 3.537000000000001	 0.0
 47	 1	 1	 0.0	 14.703032895290686	 4.244400000000001	 0.0
 48	 1	 1	 0.0	 15.928285636564912	 3.537000000000001	 0.0
 49	 1	 1	 0.0	 17.153538377839137	 4.244400000000001	 0.0
 50	 1	 1	 0.0	 18.378791119113362	 3.537000000000001	 0.0
 51	 1	 11	 0.15	 19.604043860387584	 4.244400000000001	 0.0
 52	 1	 11	 0.15	 0.0	 5.6592	 0.0
 53	 1	 1	 0.0	 1.225252741274224	 6.3666	 0.0
 54	 1	 1	 0.0	 2.450505482548448	 5.6592	 0.0
 55	 1	 1	 0.0	 3.675758223822672	 6.3666	 0.0
 56	 1	 1	 0.0	 4.901010965096896	 5.6592	 0.0
 57	 1	 1	 0.0	 6.12626370637112	 6.3666	 0.0
 58	 1	 1	 0.0	 7.351516447645344	 5.6592	 0.0
 59	 1	 1	 0.0	 8.576769188919569	 6.3666	 0.0
 60	 1	 1	 0.0	 9.802021930193792	 5.6592	 0.0
 61	 1	 1	 0.0	 11.027274671468016	 6.3666	 0.0
 62	 1	 1	 0.0	 12.25252741274224	 5.6592	 0.0
 63	 1	 1	 0.0	 13.477780154016463	 6.3666	 0.0
 64	 1	 1	 0.0	 14.703032895290686	 5.6592	 0.0
 65	 1	 1	 0.0	 15.928285636564912	 6.3666	 0.0
 66	 1	 1	 0.0	 17.153538377839137	 5.6592	 0.0
 67	 1	 1	 0.0	 18.378791119113362	 6.3666	 0.0
 68	 1	 11	 0.15	 19.604043860387584	 5.6592	 0.0
 69	 1	 11	 0.15	 0.0	 8.488800000000001	 0.0
 70	 1	 1	 0.0	 1.225252741274224	 7.781400000000001	 0.0
 71	 1	 1	 0.0	 2.450505482548448	 8.488800000000001	 0.0
 72	 1	 1	 0.0	 3.675758223822672	 7.781400000000001	 0.0
 73	 1	 1	 0.0	 4.901010965096896	 8.488800000000001	 0.0
 74	 1	 1	 0.0	 6.12626370637112	 7.781400000000001	 0.0
 75	 1	 1	 0.0	 7.351516447645344	 8.488800000000001	 0.0
 76	 1	 1	 0.0	 8.576769188919569	 7.781400000000001	 0.0
 77	 1	 1	 0.0	 9.802021930193792	 8.488800000000001	 0.0
 78	 1	 1	 0.0	 11.027274671468016	 7.781400000000001	 0.0
 79	 1	 1	 0.0	 12.25252741274224	 8.488800000000001	 0.0
 80	 1	 1	 0.0	 13.477780154016463	 7.781400000000001	 0.0
 81	 1	 1	 0.0	 14.703032895290686	 8.488800000000001	 0.0
 82	 1	 1	 0.0	 15.928285636564912	 7.781400000000001	 0.0
 83	 1	 1	 0.0	 17.153538377839137	 8.488800000000001	 0.0
 84	 1	 1	 0.0	 18.378791119113362	 7.781400000000001	 0.0
 85	 1	 1	 -0.115	 19.604043860387584	 8.488800000000001	 0.0
 86	 1	 1	 -0.115	 0.0	 9.9036	 0.0
 87	 1	 1	 0.0	 1.225252741274224	 10.611	 0.0
 88	 1	 1	 0.0	 2.450505482548448	 9.9036	 0.0
 89	 1	 1	 0.0	 3.675758223822672	 10.611	 0.0
 90	 1	 1	 0.0	 4.901010965096896	 9.9036	 0.0
 91	 1	 1	 0.0	 6.12626370637112	 10.611	 0.0
 92	 1	 1	 0.0	 7.351516447645344	 9.9036	 0.0
 93	 1	 1	 0.0	 8.576769188919569	 10.611	 0.0
 94	 1	 1	 0.0	 9.802021930193792	 9.9036	 0.0
 95	 1	 1	 0.0	 11.027274671468016	 10.611	 0.0
 96	 1	 1	 0.0	 12.25252741274224	 9.9036	 0.0
 97	 1	 1	 0.0	 13.477780154016463	 10.611	 0.0
 98	 1	 1	 0.0	 14.703032895290686	 9.9036	 0.0
 99	 1	 1	 0.0	 15.928285636564912	 10.611	 0.0
 100	 1	 1	 0.0	 17.153538377839137	 9.9036	 0.0
 101	 1	 1	 0.0	 18.378791119113362	 10.611	 0.0
 102	 1	 1	 -0.115	 19.604043860387584	 9.9036	 0.0
 103	 1	 11	 0.15	 0.0	 12.733200000000002	 0.0
 104	 1	 1	 0.0	 1.225252741274224	 12.025800000000002	 0.0
 105	 1	 1	 0.0	 2.450505482548448	 12.733200000000002	 0.0
 106	 1	 1	 0.0	 3.675758223822672	 12.025800000000002	 0.0
 107	 1	 1	 0.0	 4.901010965096896	 12.733200000000002	 0.0
 108	 1	 1	 0.0	 6.12626370637112	 12.025800000000002	 0.0
 109	 1	 1	 0.0	 7.351516447645344	 12.733200000000002	 0.0
 110	 1	 1	 0.0	 8.576769188919569	 12.025800000000002	 0.0
 111	 1	 1	 0.0	 9.802021930193792	 12.733200000000002	 0.0
 112	 1	 1	 0.0	 11.027274671468016	 12.025800000000002	 0.0
 113	 1	 1	 0.0	 12.25252741274224	 12.733200000000002	 0.0
 114	 1	 1	 0.0	 13.477780154016463	 12.025800000000002	 0.0
 115	 1	 1	 0.0	 14.703032895290686	 12.733200000000002	 0.0
 116	 1	 1	 0.0	 15.928285636564912	 12.025800000000002	 0.0
 117	 1	 1	 0.0	 17.153538377839137	 12.733200000000002	 0.0
 118	 1	 1	 0.0	 18.378791119113362	 12.025800000000002	 0.0
 119	 1	 1	 -0.115	 19.604043860387584	 12.733200000000002	 0.0
 120	 1	 1	 -0.115	 0.0	 14.148	 0.0
 121	 1	 1	 0.0	 1.225252741274224	 14.8554	 0.0
 122	 1	 1	 0.0	 2.450505482548448	 14.148	 0.0
 123	 1	 1	 0.0	 3.675758223822672	 14.8554	 0.0
 124	 1	 1	 0.0	 4.901010965096896	 14.148	 0.0
 125	 1	 1	 0.0	 6.12626370637112	 14.8554	 0.0
 126	 1	 1	 0.0	 7.351516447645344	 14.148	 0.0
 127	 1	 1	 0.0	 8.576769188919569	 14.8554	 0.0
 128	 1	 1	 0.0	 9.802021930193792	 14.148	 0.0
 129	 1	 1	 0.0	 11.027274671468016	 14.8554	 0.0
 130	 1	 1	 0.0	 12.25252741274224	 14.148	 0.0
 131	 1	 1	 0.0	 13.477780154016463	 14.8554	 0.0
 132	 1	 1	 0.0	 14.703032895290686	 14.148	 0.0
 133	 1	 1	 0.0	 15.928285636564912	 14.8554	 0.0
 134	 1	 1	 0.0	 17.153538377839137	 14.148	 0.0
 135	 1	 1	 0.0	 18.378791119113362	 14.8554	 0.0
 136	 1	 11	 0.15	 19.604043860387584	 14.148	 0.0
 137	 1	 1	 -0.115	 0.0	 16.977600000000002	 0.0
 138	 1	 1	 0.0	 1.225252741274224	 16.270200000000003	 0.0
 139	 1	 1	 0.0	 2.450505482548448	 16.977600000000002	 0.0
 140	 1	 1	 0.0	 3.675758223822672	 16.270200000000003	 0.0
 141	 1	 1	 0.0	 4.901010965096896	 16.977600000000002	 0.0
 142	 1	 1	 0.0	 6.12626370637112	 16.270200000000003	 0.0
 143	 1	 1	 0.0	 7.351516447645344	 16.977600000000002	 0.0
 144	 1	 1	 0.0	 8.576769188919569	 16.270200000000003	 0.0
 145	 1	 1	 0.0	 9.802021930193792	 16.977600000000002	 0.0
 146	 1	 1	 0.0	 11.027274671468016	 16.270200000000003	 0.0
 147	 1	 1	 0.0	 12.25252741274224	 16.977600000000002	 0.0
 148	 1	 1	 0.0	 13.477780154016463	 16.270200000000003	 0.0
 149	 1	 1	 0.0	 14.703032895290686	 16.977600000000002	 0.0
 150	 1	 1	 0.0	 15.928285636564912	 16.270200000000003	 0.0
 151	 1	 1	 0.0	 17.153538377839137	 16.977600000000002	 0.0
 152	 1	 1	 0.0	 18.378791119113362	 16.270200000000003	 0.0
 153	 1	 11	 0.15	 19.604043860387584	 16.977600000000002	 0.0
 154	 1	 11	 0.15	 0.0	 18.392400000000002	 0.0
 155	 1	 1	 -0.115	 1.225252741274224	 19.099800000000002	 0.0
 156	 1	 1	 0.0	 2.450505482548448	 18.392400000000002	 0.0
 157	 1	 1	 -0.115	 3.675758223822672	 19.099800000000002	 0.0
 158	 1	 1	 0.0	 4.901010965096896	 18.392400000000002	 0.0
 159	 1	 1	 -0.115	 6.12626370637112	 19.099800000000002	 0.0
 160	 1	 1	 0.0	 7.351516447645344	 18.392400000000002	 0.0
 161	 1	 11	 0.15	 8.576769188919569	 19.099800000000002	 0.0
 162	 1	 1	 0.0	 9.802021930193792	 18.392400000000002	 0.0
 163	 1	 11	 0.15	 11.027274671468016	 19.099800000000002	 0.0
 164	 1	 1	 0.0	 12.25252741274224	 18.392400000000002	 0.0
 165	 1	 11	 0.15	 13.477780154016463	 19.099800000000002	 0.0
 166	 1	 1	 0.0	 14.703032895290686	 18.392400000000002	 0.0
 167	 1	 11	 0.15	 15.928285636564912	 19.099800000000002	 0.0
 168	 1	 1	 0.0	 17.153538377839137	 18.392400000000002	 0.0
 169	 1	 11	 0.15	 18.378791119113362	 19.099800000000002	 0.0
 170	 1	 1	 -0.115	 19.604043860387584	 18.392400000000002	 0.0
 171	 1	 7	 -0.585	 1.225252741274224	 -2.1074	 0.0
 172	 1	 7	 -0.585	 3.675758223822672	 -2.1074	 0.0
 173	 1	 2	 0.115	 6.12626370637112	 -1.7844	 0.0
 174	 1	 2	 0.115	 8.576769188919569	 -1.7844	 0.0
 175	 1	 7	 -0.585	 11.027274671468016	 -2.1074	 0.0
 176	 1	 2	 0.115	 13.477780154016463	 -1.7844	 0.0
 177	 1	 2	 0.115	 15.928285636564912	 -1.7844	 0.0
 178	 1	 7	 -0.585	 18.378791119113362	 -2.1074	 0.0
 179	 1	 2	 0.115	 1.225252741274224	 20.1768	 0.0
 180	 1	 2	 0.115	 3.675758223822672	 20.1768	 0.0
 181	 1	 2	 0.115	 6.12626370637112	 20.1768	 0.0
 182	 1	 7	 -0.585	 8.576769188919569	 20.4998	 0.0
 183	 1	 7	 -0.585	 11.027274671468016	 20.4998	 0.0
 184	 1	 7	 -0.585	 13.477780154016463	 20.4998	 0.0
 185	 1	 7	 -0.585	 15.928285636564912	 20.4998	 0.0
 186	 1	 7	 -0.585	 18.378791119113362	 20.4998	 0.0
 187	 1	 2	 0.115	 -0.9327093598758405	 -0.5385	 0.0
 188	 1	 2	 0.115	 -0.9327093598758405	 1.9533	 0.0
 189	 1	 2	 0.115	 20.536753220263424	 -0.5385	 0.0
 190	 1	 7	 -0.585	 20.8164794256858	 2.1148000000000002	 0.0
 191	 1	 2	 0.115	 -0.9327093598758405	 3.7059000000000006	 0.0
 192	 1	 7	 -0.585	 -1.2124355652982142	 6.3592	 0.0
 193	 1	 7	 -0.585	 20.8164794256858	 3.5444000000000004	 0.0
 194	 1	 7	 -0.585	 20.8164794256858	 6.3592	 0.0
 195	 1	 7	 -0.585	 -1.2124355652982142	 7.788800000000001	 0.0
 196	 1	 2	 0.115	 -0.9327093598758405	 10.4421	 0.0
 197	 1	 2	 0.115	 20.536753220263424	 7.950300000000001	 0.0
 198	 1	 2	 0.115	 20.536753220263424	 10.4421	 0.0
 199	 1	 7	 -0.585	 -1.2124355652982137	 12.0332	 0.0
 200	 1	 2	 0.115	 -0.9327093598758405	 14.686499999999999	 0.0
 201	 1	 2	 0.115	 20.536753220263424	 12.194700000000001	 0.0
 202	 1	 7	 -0.585	 20.8164794256858	 14.847999999999999	 0.0
 203	 1	 2	 0.115	 -0.9327093598758405	 16.439100000000003	 0.0
 204	 1	 7	 -0.585	 -1.2124355652982146	 19.0924	 0.0
 205	 1	 7	 -0.585	 20.8164794256858	 16.277600000000003	 0.0
 206	 1	 2	 0.115	 20.536753220263424	 18.9309	 0.0
 207	 1	 5	 0.435	 1.225252741274224	 -2.8074000000000003	 0.7
 208	 1	 5	 0.435	 3.675758223822672	 -2.8074000000000003	 -0.7
 209	 1	 5	 0.435	 11.027274671468016	 -2.8074000000000003	 0.7
 210	 1	 5	 0.435	 18.378791119113362	 -2.8074000000000003	 0.7
 211	 1	 5	 0.435	 8.576769188919569	 21.1998	 0.7
 212	 1	 5	 0.435	 11.027274671468016	 21.1998	 -0.7
 213	 1	 5	 0.435	 13.477780154016463	 21.1998	 0.7
 214	 1	 5	 0.435	 15.928285636564912	 21.1998	 0.7
 215	 1	 5	 0.435	 18.378791119113362	 21.1998	 0.7
 216	 1	 5	 0.435	 21.422697208334906	 2.4648000000000003	 0.7
 217	 1	 5	 0.435	 -1.8186533479473213	 6.7092	 0.7
 218	 1	 5	 0.435	 21.422697208334906	 3.1944000000000004	 -0.7
 219	 1	 5	 0.435	 21.422697208334906	 6.7092	 0.7
 220	 1	 5	 0.435	 -1.8186533479473213	 7.438800000000001	 0.7
 221	 1	 5	 0.435	 -1.8186533479473206	 11.683200000000001	 0.7
 222	 1	 5	 0.435	 21.422697208334906	 15.197999999999999	 0.7
 223	 1	 5	 0.435	 -1.818653347947322	 19.4424	 0.7
 224	 1	 5	 0.435	 21.422697208334906	 15.927600000000004	 0.7
 
 Bonds 
 
1	 1	 1	 2
2	 1	 2	 3
3	 1	 3	 4
4	 1	 4	 5
5	 2	 5	 6
6	 2	 6	 7
7	 2	 7	 8
8	 2	 8	 9
9	 1	 9	 10
10	 1	 10	 11
11	 2	 11	 12
12	 2	 12	 13
13	 2	 13	 14
14	 2	 14	 15
15	 1	 15	 16
16	 1	 16	 17
17	 2	 18	 19
18	 2	 19	 20
19	 2	 20	 21
20	 2	 21	 22
21	 2	 22	 23
22	 2	 23	 24
23	 2	 24	 25
24	 2	 25	 26
25	 2	 26	 27
26	 2	 27	 28
27	 2	 28	 29
28	 2	 29	 30
29	 2	 30	 31
30	 2	 31	 32
31	 2	 32	 33
32	 1	 33	 34
33	 2	 35	 36
34	 2	 36	 37
35	 2	 37	 38
36	 2	 38	 39
37	 2	 39	 40
38	 2	 40	 41
39	 2	 41	 42
40	 2	 42	 43
41	 2	 43	 44
42	 2	 44	 45
43	 2	 45	 46
44	 2	 46	 47
45	 2	 47	 48
46	 2	 48	 49
47	 2	 49	 50
48	 1	 50	 51
49	 1	 52	 53
50	 2	 53	 54
51	 2	 54	 55
52	 2	 55	 56
53	 2	 56	 57
54	 2	 57	 58
55	 2	 58	 59
56	 2	 59	 60
57	 2	 60	 61
58	 2	 61	 62
59	 2	 62	 63
60	 2	 63	 64
61	 2	 64	 65
62	 2	 65	 66
63	 2	 66	 67
64	 1	 67	 68
65	 1	 69	 70
66	 2	 70	 71
67	 2	 71	 72
68	 2	 72	 73
69	 2	 73	 74
70	 2	 74	 75
71	 2	 75	 76
72	 2	 76	 77
73	 2	 77	 78
74	 2	 78	 79
75	 2	 79	 80
76	 2	 80	 81
77	 2	 81	 82
78	 2	 82	 83
79	 2	 83	 84
80	 2	 84	 85
81	 2	 86	 87
82	 2	 87	 88
83	 2	 88	 89
84	 2	 89	 90
85	 2	 90	 91
86	 2	 91	 92
87	 2	 92	 93
88	 2	 93	 94
89	 2	 94	 95
90	 2	 95	 96
91	 2	 96	 97
92	 2	 97	 98
93	 2	 98	 99
94	 2	 99	 100
95	 2	 100	 101
96	 2	 101	 102
97	 1	 103	 104
98	 2	 104	 105
99	 2	 105	 106
100	 2	 106	 107
101	 2	 107	 108
102	 2	 108	 109
103	 2	 109	 110
104	 2	 110	 111
105	 2	 111	 112
106	 2	 112	 113
107	 2	 113	 114
108	 2	 114	 115
109	 2	 115	 116
110	 2	 116	 117
111	 2	 117	 118
112	 2	 118	 119
113	 2	 120	 121
114	 2	 121	 122
115	 2	 122	 123
116	 2	 123	 124
117	 2	 124	 125
118	 2	 125	 126
119	 2	 126	 127
120	 2	 127	 128
121	 2	 128	 129
122	 2	 129	 130
123	 2	 130	 131
124	 2	 131	 132
125	 2	 132	 133
126	 2	 133	 134
127	 2	 134	 135
128	 1	 135	 136
129	 2	 137	 138
130	 2	 138	 139
131	 2	 139	 140
132	 2	 140	 141
133	 2	 141	 142
134	 2	 142	 143
135	 2	 143	 144
136	 2	 144	 145
137	 2	 145	 146
138	 2	 146	 147
139	 2	 147	 148
140	 2	 148	 149
141	 2	 149	 150
142	 2	 150	 151
143	 2	 151	 152
144	 1	 152	 153
145	 1	 154	 155
146	 2	 155	 156
147	 2	 156	 157
148	 2	 157	 158
149	 2	 158	 159
150	 2	 159	 160
151	 1	 160	 161
152	 1	 161	 162
153	 1	 162	 163
154	 1	 163	 164
155	 1	 164	 165
156	 1	 165	 166
157	 1	 166	 167
158	 1	 167	 168
159	 1	 168	 169
160	 1	 169	 170
161	 2	 1	 18
162	 2	 3	 20
163	 2	 5	 22
164	 2	 7	 24
165	 2	 9	 26
166	 2	 11	 28
167	 2	 13	 30
168	 2	 15	 32
169	 1	 17	 34
170	 2	 19	 36
171	 2	 21	 38
172	 2	 23	 40
173	 2	 25	 42
174	 2	 27	 44
175	 2	 29	 46
176	 2	 31	 48
177	 2	 33	 50
178	 1	 35	 52
179	 2	 37	 54
180	 2	 39	 56
181	 2	 41	 58
182	 2	 43	 60
183	 2	 45	 62
184	 2	 47	 64
185	 2	 49	 66
186	 3	 51	 68
187	 2	 53	 70
188	 2	 55	 72
189	 2	 57	 74
190	 2	 59	 76
191	 2	 61	 78
192	 2	 63	 80
193	 2	 65	 82
194	 2	 67	 84
195	 1	 69	 86
196	 2	 71	 88
197	 2	 73	 90
198	 2	 75	 92
199	 2	 77	 94
200	 2	 79	 96
201	 2	 81	 98
202	 2	 83	 100
203	 2	 85	 102
204	 2	 87	 104
205	 2	 89	 106
206	 2	 91	 108
207	 2	 93	 110
208	 2	 95	 112
209	 2	 97	 114
210	 2	 99	 116
211	 2	 101	 118
212	 1	 103	 120
213	 2	 105	 122
214	 2	 107	 124
215	 2	 109	 126
216	 2	 111	 128
217	 2	 113	 130
218	 2	 115	 132
219	 2	 117	 134
220	 1	 119	 136
221	 2	 121	 138
222	 2	 123	 140
223	 2	 125	 142
224	 2	 127	 144
225	 2	 129	 146
226	 2	 131	 148
227	 2	 133	 150
228	 2	 135	 152
229	 1	 137	 154
230	 2	 139	 156
231	 2	 141	 158
232	 2	 143	 160
233	 2	 145	 162
234	 2	 147	 164
235	 2	 149	 166
236	 2	 151	 168
237	 1	 153	 170
238	 4	 2	 171
239	 4	 4	 172
240	 5	 6	 173
241	 5	 8	 174
242	 4	 10	 175
243	 5	 12	 176
244	 5	 14	 177
245	 4	 16	 178
246	 5	 155	 179
247	 5	 157	 180
248	 5	 159	 181
249	 4	 161	 182
250	 4	 163	 183
251	 4	 165	 184
252	 4	 167	 185
253	 4	 169	 186
254	 5	 1	 187
255	 5	 18	 188
256	 5	 17	 189
257	 4	 34	 190
258	 5	 35	 191
259	 4	 52	 192
260	 4	 51	 193
261	 4	 68	 194
262	 4	 69	 195
263	 5	 86	 196
264	 5	 85	 197
265	 5	 102	 198
266	 4	 103	 199
267	 5	 120	 200
268	 5	 119	 201
269	 4	 136	 202
270	 5	 137	 203
271	 4	 154	 204
272	 4	 153	 205
273	 5	 170	 206
274	 6	 171	 207
275	 6	 172	 208
276	 6	 175	 209
277	 6	 178	 210
278	 6	 182	 211
279	 6	 183	 212
280	 6	 184	 213
281	 6	 185	 214
282	 6	 186	 215
283	 6	 190	 216
284	 6	 192	 217
285	 6	 193	 218
286	 6	 194	 219
287	 6	 195	 220
288	 6	 199	 221
289	 6	 202	 222
290	 6	 204	 223
291	 6	 205	 224

 Angles 
 
1	 1	 2	 1	 187
2	 2	 2	 1	 18
3	 3	 187	 1	 18
4	 4	 1	 2	 3
5	 5	 1	 2	 171
6	 5	 3	 2	 171
7	 2	 20	 3	 2
8	 2	 20	 3	 4
9	 6	 2	 3	 4
10	 5	 3	 4	 172
11	 4	 3	 4	 5
12	 5	 172	 4	 5
13	 2	 4	 5	 6
14	 2	 4	 5	 22
15	 7	 6	 5	 22
16	 3	 173	 6	 5
17	 3	 173	 6	 7
18	 7	 5	 6	 7
19	 7	 24	 7	 6
20	 7	 24	 7	 8
21	 7	 6	 7	 8
22	 3	 9	 8	 174
23	 7	 9	 8	 7
24	 3	 174	 8	 7
25	 2	 10	 9	 26
26	 2	 10	 9	 8
27	 7	 26	 9	 8
28	 4	 9	 10	 11
29	 5	 9	 10	 175
30	 5	 11	 10	 175
31	 2	 28	 11	 10
32	 7	 28	 11	 12
33	 2	 10	 11	 12
34	 7	 11	 12	 13
35	 3	 11	 12	 176
36	 3	 13	 12	 176
37	 7	 12	 13	 14
38	 7	 12	 13	 30
39	 7	 14	 13	 30
40	 3	 177	 14	 13
41	 3	 177	 14	 15
42	 7	 13	 14	 15
43	 7	 32	 15	 14
44	 2	 32	 15	 16
45	 2	 14	 15	 16
46	 5	 17	 16	 178
47	 4	 17	 16	 15
48	 5	 178	 16	 15
49	 1	 34	 17	 189
50	 6	 34	 17	 16
51	 1	 189	 17	 16
52	 7	 1	 18	 19
53	 3	 1	 18	 188
54	 3	 19	 18	 188
55	 7	 18	 19	 20
56	 7	 18	 19	 36
57	 7	 20	 19	 36
58	 7	 19	 20	 21
59	 7	 19	 20	 3
60	 7	 21	 20	 3
61	 7	 20	 21	 22
62	 7	 20	 21	 38
63	 7	 22	 21	 38
64	 7	 5	 22	 21
65	 7	 5	 22	 23
66	 7	 21	 22	 23
67	 7	 40	 23	 22
68	 7	 40	 23	 24
69	 7	 22	 23	 24
70	 7	 25	 24	 7
71	 7	 25	 24	 23
72	 7	 7	 24	 23
73	 7	 26	 25	 42
74	 7	 26	 25	 24
75	 7	 42	 25	 24
76	 7	 25	 26	 9
77	 7	 25	 26	 27
78	 7	 9	 26	 27
79	 7	 26	 27	 28
80	 7	 26	 27	 44
81	 7	 28	 27	 44
82	 7	 27	 28	 29
83	 7	 27	 28	 11
84	 7	 29	 28	 11
85	 7	 28	 29	 30
86	 7	 28	 29	 46
87	 7	 30	 29	 46
88	 7	 13	 30	 29
89	 7	 13	 30	 31
90	 7	 29	 30	 31
91	 7	 48	 31	 30
92	 7	 48	 31	 32
93	 7	 30	 31	 32
94	 7	 33	 32	 15
95	 7	 33	 32	 31
96	 7	 15	 32	 31
97	 2	 34	 33	 50
98	 2	 34	 33	 32
99	 7	 50	 33	 32
100	 4	 33	 34	 17
101	 5	 33	 34	 190
102	 5	 17	 34	 190
103	 2	 52	 35	 36
104	 1	 52	 35	 191
105	 3	 36	 35	 191
106	 7	 35	 36	 37
107	 7	 35	 36	 19
108	 7	 37	 36	 19
109	 7	 36	 37	 38
110	 7	 36	 37	 54
111	 7	 38	 37	 54
112	 7	 21	 38	 37
113	 7	 21	 38	 39
114	 7	 37	 38	 39
115	 7	 56	 39	 38
116	 7	 56	 39	 40
117	 7	 38	 39	 40
118	 7	 41	 40	 23
119	 7	 41	 40	 39
120	 7	 23	 40	 39
121	 7	 42	 41	 58
122	 7	 42	 41	 40
123	 7	 58	 41	 40
124	 7	 41	 42	 25
125	 7	 41	 42	 43
126	 7	 25	 42	 43
127	 7	 42	 43	 44
128	 7	 42	 43	 60
129	 7	 44	 43	 60
130	 7	 43	 44	 45
131	 7	 43	 44	 27
132	 7	 45	 44	 27
133	 7	 44	 45	 46
134	 7	 44	 45	 62
135	 7	 46	 45	 62
136	 7	 29	 46	 45
137	 7	 29	 46	 47
138	 7	 45	 46	 47
139	 7	 64	 47	 46
140	 7	 64	 47	 48
141	 7	 46	 47	 48
142	 7	 49	 48	 31
143	 7	 49	 48	 47
144	 7	 31	 48	 47
145	 7	 50	 49	 66
146	 7	 50	 49	 48
147	 7	 66	 49	 48
148	 7	 49	 50	 33
149	 2	 49	 50	 51
150	 2	 33	 50	 51
151	 5	 193	 51	 50
152	 8	 193	 51	 68
153	 9	 50	 51	 68
154	 4	 35	 52	 53
155	 5	 35	 52	 192
156	 5	 53	 52	 192
157	 2	 52	 53	 54
158	 2	 52	 53	 70
159	 7	 54	 53	 70
160	 7	 37	 54	 53
161	 7	 37	 54	 55
162	 7	 53	 54	 55
163	 7	 72	 55	 54
164	 7	 72	 55	 56
165	 7	 54	 55	 56
166	 7	 57	 56	 39
167	 7	 57	 56	 55
168	 7	 39	 56	 55
169	 7	 58	 57	 74
170	 7	 58	 57	 56
171	 7	 74	 57	 56
172	 7	 57	 58	 41
173	 7	 57	 58	 59
174	 7	 41	 58	 59
175	 7	 58	 59	 76
176	 7	 58	 59	 60
177	 7	 76	 59	 60
178	 7	 59	 60	 61
179	 7	 59	 60	 43
180	 7	 61	 60	 43
181	 7	 60	 61	 62
182	 7	 60	 61	 78
183	 7	 62	 61	 78
184	 7	 45	 62	 61
185	 7	 45	 62	 63
186	 7	 61	 62	 63
187	 7	 80	 63	 62
188	 7	 80	 63	 64
189	 7	 62	 63	 64
190	 7	 65	 64	 47
191	 7	 65	 64	 63
192	 7	 47	 64	 63
193	 7	 66	 65	 82
194	 7	 66	 65	 64
195	 7	 82	 65	 64
196	 7	 65	 66	 49
197	 7	 65	 66	 67
198	 7	 49	 66	 67
199	 7	 66	 67	 84
200	 2	 66	 67	 68
201	 2	 84	 67	 68
202	 5	 194	 68	 67
203	 8	 194	 68	 51
204	 9	 67	 68	 51
205	 5	 195	 69	 70
206	 5	 195	 69	 86
207	 4	 70	 69	 86
208	 2	 53	 70	 69
209	 7	 53	 70	 71
210	 2	 69	 70	 71
211	 7	 88	 71	 70
212	 7	 88	 71	 72
213	 7	 70	 71	 72
214	 7	 73	 72	 55
215	 7	 73	 72	 71
216	 7	 55	 72	 71
217	 7	 74	 73	 90
218	 7	 74	 73	 72
219	 7	 90	 73	 72
220	 7	 73	 74	 57
221	 7	 73	 74	 75
222	 7	 57	 74	 75
223	 7	 74	 75	 92
224	 7	 74	 75	 76
225	 7	 92	 75	 76
226	 7	 75	 76	 77
227	 7	 75	 76	 59
228	 7	 77	 76	 59
229	 7	 76	 77	 78
230	 7	 76	 77	 94
231	 7	 78	 77	 94
232	 7	 61	 78	 77
233	 7	 61	 78	 79
234	 7	 77	 78	 79
235	 7	 96	 79	 78
236	 7	 96	 79	 80
237	 7	 78	 79	 80
238	 7	 81	 80	 63
239	 7	 81	 80	 79
240	 7	 63	 80	 79
241	 7	 82	 81	 98
242	 7	 82	 81	 80
243	 7	 98	 81	 80
244	 7	 81	 82	 65
245	 7	 81	 82	 83
246	 7	 65	 82	 83
247	 7	 100	 83	 82
248	 7	 100	 83	 84
249	 7	 82	 83	 84
250	 7	 83	 84	 85
251	 7	 83	 84	 67
252	 7	 85	 84	 67
253	 3	 84	 85	 197
254	 7	 84	 85	 102
255	 3	 197	 85	 102
256	 1	 196	 86	 69
257	 3	 196	 86	 87
258	 2	 69	 86	 87
259	 7	 104	 87	 86
260	 7	 104	 87	 88
261	 7	 86	 87	 88
262	 7	 89	 88	 71
263	 7	 89	 88	 87
264	 7	 71	 88	 87
265	 7	 90	 89	 106
266	 7	 90	 89	 88
267	 7	 106	 89	 88
268	 7	 89	 90	 73
269	 7	 89	 90	 91
270	 7	 73	 90	 91
271	 7	 108	 91	 90
272	 7	 108	 91	 92
273	 7	 90	 91	 92
274	 7	 91	 92	 93
275	 7	 91	 92	 75
276	 7	 93	 92	 75
277	 7	 92	 93	 94
278	 7	 92	 93	 110
279	 7	 94	 93	 110
280	 7	 77	 94	 93
281	 7	 77	 94	 95
282	 7	 93	 94	 95
283	 7	 112	 95	 94
284	 7	 112	 95	 96
285	 7	 94	 95	 96
286	 7	 97	 96	 79
287	 7	 97	 96	 95
288	 7	 79	 96	 95
289	 7	 98	 97	 114
290	 7	 98	 97	 96
291	 7	 114	 97	 96
292	 7	 97	 98	 81
293	 7	 97	 98	 99
294	 7	 81	 98	 99
295	 7	 116	 99	 98
296	 7	 116	 99	 100
297	 7	 98	 99	 100
298	 7	 99	 100	 101
299	 7	 99	 100	 83
300	 7	 101	 100	 83
301	 7	 100	 101	 102
302	 7	 100	 101	 118
303	 7	 102	 101	 118
304	 7	 85	 102	 101
305	 3	 85	 102	 198
306	 3	 101	 102	 198
307	 5	 120	 103	 199
308	 4	 120	 103	 104
309	 5	 199	 103	 104
310	 7	 105	 104	 87
311	 2	 105	 104	 103
312	 2	 87	 104	 103
313	 7	 106	 105	 122
314	 7	 106	 105	 104
315	 7	 122	 105	 104
316	 7	 105	 106	 89
317	 7	 105	 106	 107
318	 7	 89	 106	 107
319	 7	 124	 107	 106
320	 7	 124	 107	 108
321	 7	 106	 107	 108
322	 7	 107	 108	 109
323	 7	 107	 108	 91
324	 7	 109	 108	 91
325	 7	 108	 109	 110
326	 7	 108	 109	 126
327	 7	 110	 109	 126
328	 7	 93	 110	 109
329	 7	 93	 110	 111
330	 7	 109	 110	 111
331	 7	 128	 111	 110
332	 7	 128	 111	 112
333	 7	 110	 111	 112
334	 7	 113	 112	 95
335	 7	 113	 112	 111
336	 7	 95	 112	 111
337	 7	 130	 113	 114
338	 7	 130	 113	 112
339	 7	 114	 113	 112
340	 7	 113	 114	 97
341	 7	 113	 114	 115
342	 7	 97	 114	 115
343	 7	 114	 115	 116
344	 7	 114	 115	 132
345	 7	 116	 115	 132
346	 7	 115	 116	 117
347	 7	 115	 116	 99
348	 7	 117	 116	 99
349	 7	 116	 117	 118
350	 7	 116	 117	 134
351	 7	 118	 117	 134
352	 7	 101	 118	 117
353	 7	 101	 118	 119
354	 7	 117	 118	 119
355	 3	 201	 119	 118
356	 1	 201	 119	 136
357	 2	 118	 119	 136
358	 2	 121	 120	 103
359	 3	 121	 120	 200
360	 1	 103	 120	 200
361	 7	 138	 121	 122
362	 7	 138	 121	 120
363	 7	 122	 121	 120
364	 7	 121	 122	 105
365	 7	 121	 122	 123
366	 7	 105	 122	 123
367	 7	 122	 123	 124
368	 7	 122	 123	 140
369	 7	 124	 123	 140
370	 7	 123	 124	 125
371	 7	 123	 124	 107
372	 7	 125	 124	 107
373	 7	 124	 125	 126
374	 7	 124	 125	 142
375	 7	 126	 125	 142
376	 7	 109	 126	 125
377	 7	 109	 126	 127
378	 7	 125	 126	 127
379	 7	 144	 127	 126
380	 7	 144	 127	 128
381	 7	 126	 127	 128
382	 7	 129	 128	 111
383	 7	 129	 128	 127
384	 7	 111	 128	 127
385	 7	 146	 129	 130
386	 7	 146	 129	 128
387	 7	 130	 129	 128
388	 7	 129	 130	 113
389	 7	 129	 130	 131
390	 7	 113	 130	 131
391	 7	 130	 131	 132
392	 7	 130	 131	 148
393	 7	 132	 131	 148
394	 7	 131	 132	 133
395	 7	 131	 132	 115
396	 7	 133	 132	 115
397	 7	 132	 133	 134
398	 7	 132	 133	 150
399	 7	 134	 133	 150
400	 7	 117	 134	 133
401	 7	 117	 134	 135
402	 7	 133	 134	 135
403	 7	 152	 135	 134
404	 2	 152	 135	 136
405	 2	 134	 135	 136
406	 5	 202	 136	 119
407	 5	 202	 136	 135
408	 4	 119	 136	 135
409	 3	 138	 137	 203
410	 2	 138	 137	 154
411	 1	 203	 137	 154
412	 7	 137	 138	 121
413	 7	 137	 138	 139
414	 7	 121	 138	 139
415	 7	 138	 139	 140
416	 7	 138	 139	 156
417	 7	 140	 139	 156
418	 7	 139	 140	 141
419	 7	 139	 140	 123
420	 7	 141	 140	 123
421	 7	 140	 141	 142
422	 7	 140	 141	 158
423	 7	 142	 141	 158
424	 7	 125	 142	 141
425	 7	 125	 142	 143
426	 7	 141	 142	 143
427	 7	 160	 143	 142
428	 7	 160	 143	 144
429	 7	 142	 143	 144
430	 7	 145	 144	 127
431	 7	 145	 144	 143
432	 7	 127	 144	 143
433	 7	 146	 145	 162
434	 7	 146	 145	 144
435	 7	 162	 145	 144
436	 7	 145	 146	 129
437	 7	 145	 146	 147
438	 7	 129	 146	 147
439	 7	 146	 147	 148
440	 7	 146	 147	 164
441	 7	 148	 147	 164
442	 7	 147	 148	 149
443	 7	 147	 148	 131
444	 7	 149	 148	 131
445	 7	 148	 149	 150
446	 7	 148	 149	 166
447	 7	 150	 149	 166
448	 7	 133	 150	 149
449	 7	 133	 150	 151
450	 7	 149	 150	 151
451	 7	 168	 151	 150
452	 7	 168	 151	 152
453	 7	 150	 151	 152
454	 2	 153	 152	 135
455	 2	 153	 152	 151
456	 7	 135	 152	 151
457	 5	 170	 153	 205
458	 4	 170	 153	 152
459	 5	 205	 153	 152
460	 4	 137	 154	 155
461	 5	 137	 154	 204
462	 5	 155	 154	 204
463	 1	 154	 155	 179
464	 2	 154	 155	 156
465	 3	 179	 155	 156
466	 7	 155	 156	 157
467	 7	 155	 156	 139
468	 7	 157	 156	 139
469	 3	 180	 157	 156
470	 3	 180	 157	 158
471	 7	 156	 157	 158
472	 7	 141	 158	 157
473	 7	 141	 158	 159
474	 7	 157	 158	 159
475	 3	 181	 159	 158
476	 3	 181	 159	 160
477	 7	 158	 159	 160
478	 2	 161	 160	 143
479	 2	 161	 160	 159
480	 7	 143	 160	 159
481	 5	 162	 161	 182
482	 4	 162	 161	 160
483	 5	 182	 161	 160
484	 2	 161	 162	 145
485	 6	 161	 162	 163
486	 2	 145	 162	 163
487	 4	 162	 163	 164
488	 5	 162	 163	 183
489	 5	 164	 163	 183
490	 6	 163	 164	 165
491	 2	 163	 164	 147
492	 2	 165	 164	 147
493	 4	 164	 165	 166
494	 5	 164	 165	 184
495	 5	 166	 165	 184
496	 2	 149	 166	 165
497	 2	 149	 166	 167
498	 6	 165	 166	 167
499	 5	 185	 167	 166
500	 5	 185	 167	 168
501	 4	 166	 167	 168
502	 2	 169	 168	 151
503	 6	 169	 168	 167
504	 2	 151	 168	 167
505	 5	 170	 169	 186
506	 4	 170	 169	 168
507	 5	 186	 169	 168
508	 6	 169	 170	 153
509	 1	 169	 170	 206
510	 1	 153	 170	 206
511	 10	 2	 171	 207
512	 10	 4	 172	 208
513	 10	 209	 175	 10
514	 10	 210	 178	 16
515	 10	 161	 182	 211
516	 10	 163	 183	 212
517	 10	 213	 184	 165
518	 10	 214	 185	 167
519	 10	 169	 186	 215
520	 10	 34	 190	 216
521	 10	 217	 192	 52
522	 10	 218	 193	 51
523	 10	 219	 194	 68
524	 10	 220	 195	 69
525	 10	 221	 199	 103
526	 10	 222	 202	 136
527	 10	 154	 204	 223
528	 10	 153	 205	 224

 Dihedrals 
 
1	1 	187 	1 	2 	3 
2	2 	187 	1 	2 	171 
3	3 	18 	1 	2 	3 
4	4 	18 	1 	2 	171 
5	3 	1 	2 	3 	20 
6	5 	1 	2 	3 	4 
7	4 	171 	2 	3 	20 
8	6 	171 	2 	3 	4 
9	4 	20 	3 	4 	172 
10	3 	20 	3 	4 	5 
11	6 	2 	3 	4 	172 
12	5 	2 	3 	4 	5 
13	3 	3 	4 	5 	6 
14	3 	3 	4 	5 	22 
15	4 	172 	4 	5 	6 
16	4 	172 	4 	5 	22 
17	7 	4 	5 	6 	173 
18	8 	4 	5 	6 	7 
19	9 	22 	5 	6 	173 
20	10 	22 	5 	6 	7 
21	9 	173 	6 	7 	24 
22	9 	173 	6 	7 	8 
23	10 	5 	6 	7 	24 
24	10 	5 	6 	7 	8 
25	10 	24 	7 	8 	9 
26	9 	24 	7 	8 	174 
27	10 	6 	7 	8 	9 
28	9 	6 	7 	8 	174 
29	7 	174 	8 	9 	10 
30	9 	174 	8 	9 	26 
31	8 	7 	8 	9 	10 
32	10 	7 	8 	9 	26 
33	3 	26 	9 	10 	11 
34	4 	26 	9 	10 	175 
35	3 	8 	9 	10 	11 
36	4 	8 	9 	10 	175 
37	3 	9 	10 	11 	28 
38	3 	9 	10 	11 	12 
39	4 	175 	10 	11 	28 
40	4 	175 	10 	11 	12 
41	10 	28 	11 	12 	13 
42	9 	28 	11 	12 	176 
43	8 	10 	11 	12 	13 
44	7 	10 	11 	12 	176 
45	10 	11 	12 	13 	14 
46	10 	11 	12 	13 	30 
47	9 	176 	12 	13 	14 
48	9 	176 	12 	13 	30 
49	9 	12 	13 	14 	177 
50	10 	12 	13 	14 	15 
51	9 	30 	13 	14 	177 
52	10 	30 	13 	14 	15 
53	9 	177 	14 	15 	32 
54	7 	177 	14 	15 	16 
55	10 	13 	14 	15 	32 
56	8 	13 	14 	15 	16 
57	3 	32 	15 	16 	17 
58	4 	32 	15 	16 	178 
59	3 	14 	15 	16 	17 
60	4 	14 	15 	16 	178 
61	6 	178 	16 	17 	34 
62	2 	178 	16 	17 	189 
63	5 	15 	16 	17 	34 
64	1 	15 	16 	17 	189 
65	10 	1 	18 	19 	20 