# GO
143 atoms 
181 bonds 
323 angles 
590 dihedrals 
104 impropers 

354 atom types 
6 bond types 
10 angle types 
20 dihedral types 
7 improper types 

0.0	116.0	 xlo xhi 
0.0	116.0	 ylo yhi 
0.0	3.4827	 zlo zhi 


 Masses 
 
1	12.011
2	1.008
3	12.011
4	15.999
5	1.008
6	15.999
7	15.999
8	12.011
9	15.999
10	15.999
11	12.011
12	12.011
13	15.999
354	40.08
349	22.99

 Pair Coeffs 
 
1	0.07	3.55
2	0.03	2.42
3	0.066	3.5
4	0.17	3.12
5	0.0	0.0
6	0.14	2.9
7	0.17	3.07
8	0.105	3.75
9	0.21	2.96
10	0.17	3.0
11	0.07	3.55
12	0.105	3.75
13	0.21	2.96
354	0.449657	2.412031
349	0.0005	4.07

 Bond Coeffs 
 
1	469.0	1.4
2	469.0	1.4
3	469.0	1.4
4	450.0	1.364
5	367.0	1.08
6	553.0	0.945

 Angle Coeffs 
 
1	70.0	120.0
2	63.0	120.0
3	70.0	120.0
4	63.0	120.0
5	63.0	120.0
6	63.0	120.0
7	63.0	120.0
8	35.0	120.0
9	35.0	120.0
10	35.0	113.0

 Dihedral Coeffs 
 
1	0.0	7.25	0.0	0.0
2	0.0	7.25	0.0	0.0
3	0.0	7.25	0.0	0.0
4	0.0	7.25	0.0	0.0
5	0.0	7.25	0.0	0.0
6	0.0	7.25	0.0	0.0
7	0.0	7.25	0.0	0.0
8	0.0	7.25	0.0	0.0
9	0.0	7.25	0.0	0.0
10	0.0	7.25	0.0	0.0
11	0.0	7.25	0.0	0.0
12	0.0	7.25	0.0	0.0
13	0.0	7.25	0.0	0.0
14	0.0	7.25	0.0	0.0
15	0.0	7.25	0.0	0.0
16	0.0	7.25	0.0	0.0
17	0.0	7.25	0.0	0.0
18	0.0	7.25	0.0	0.0
19	0.0	1.682	0.0	0.0
20	0.0	1.682	0.0	0.0

 Improper Coeffs 
 
1	5.0	180.0
2	5.0	180.0
3	5.0	180.0
4	5.0	180.0
5	5.0	180.0
6	5.0	180.0
7	5.0	180.0

 Atoms 
 
1	 1	 11	 0.15	 0.0	 0.0	 0.0
 2	 1	 11	 0.15	 1.225252741274224	 -0.7074	 0.0
 3	 1	 1	 0.0	 2.450505482548448	 0.0	 0.0
 4	 1	 11	 0.15	 3.675758223822672	 -0.7074	 0.0
 5	 1	 1	 0.0	 4.901010965096896	 0.0	 0.0
 6	 1	 1	 -0.115	 6.12626370637112	 -0.7074	 0.0
 7	 1	 1	 0.0	 7.351516447645344	 0.0	 0.0
 8	 1	 1	 -0.115	 8.576769188919569	 -0.7074	 0.0
 9	 1	 1	 0.0	 9.802021930193792	 0.0	 0.0
 10	 1	 1	 -0.115	 11.027274671468016	 -0.7074	 0.0
 11	 1	 1	 0.0	 12.25252741274224	 0.0	 0.0
 12	 1	 11	 0.15	 13.477780154016463	 -0.7074	 0.0
 13	 1	 1	 -0.115	 14.703032895290686	 0.0	 0.0
 14	 1	 1	 -0.115	 0.0	 1.4148	 0.0
 15	 1	 1	 0.0	 1.225252741274224	 2.1222000000000003	 0.0
 16	 1	 1	 0.0	 2.450505482548448	 1.4148	 0.0
 17	 1	 1	 0.0	 3.675758223822672	 2.1222000000000003	 0.0
 18	 1	 1	 0.0	 4.901010965096896	 1.4148	 0.0
 19	 1	 1	 0.0	 6.12626370637112	 2.1222000000000003	 0.0
 20	 1	 1	 0.0	 7.351516447645344	 1.4148	 0.0
 21	 1	 1	 0.0	 8.576769188919569	 2.1222000000000003	 0.0
 22	 1	 1	 0.0	 9.802021930193792	 1.4148	 0.0
 23	 1	 1	 0.0	 11.027274671468016	 2.1222000000000003	 0.0
 24	 1	 1	 0.0	 12.25252741274224	 1.4148	 0.0
 25	 1	 1	 0.0	 13.477780154016463	 2.1222000000000003	 0.0
 26	 1	 11	 0.15	 14.703032895290686	 1.4148	 0.0
 27	 1	 1	 -0.115	 0.0	 4.244400000000001	 0.0
 28	 1	 1	 0.0	 1.225252741274224	 3.537000000000001	 0.0
 29	 1	 1	 0.0	 2.450505482548448	 4.244400000000001	 0.0
 30	 1	 1	 0.0	 3.675758223822672	 3.537000000000001	 0.0
 31	 1	 1	 0.0	 4.901010965096896	 4.244400000000001	 0.0
 32	 1	 1	 0.0	 6.12626370637112	 3.537000000000001	 0.0
 33	 1	 1	 0.0	 7.351516447645344	 4.244400000000001	 0.0
 34	 1	 1	 0.0	 8.576769188919569	 3.537000000000001	 0.0
 35	 1	 1	 0.0	 9.802021930193792	 4.244400000000001	 0.0
 36	 1	 1	 0.0	 11.027274671468016	 3.537000000000001	 0.0
 37	 1	 1	 0.0	 12.25252741274224	 4.244400000000001	 0.0
 38	 1	 1	 0.0	 13.477780154016463	 3.537000000000001	 0.0
 39	 1	 1	 -0.115	 14.703032895290686	 4.244400000000001	 0.0
 40	 1	 1	 -0.115	 0.0	 5.6592	 0.0
 41	 1	 1	 0.0	 1.225252741274224	 6.3666	 0.0
 42	 1	 1	 0.0	 2.450505482548448	 5.6592	 0.0
 43	 1	 1	 0.0	 3.675758223822672	 6.3666	 0.0
 44	 1	 1	 0.0	 4.901010965096896	 5.6592	 0.0
 45	 1	 1	 0.0	 6.12626370637112	 6.3666	 0.0
 46	 1	 1	 0.0	 7.351516447645344	 5.6592	 0.0
 47	 1	 1	 0.0	 8.576769188919569	 6.3666	 0.0
 48	 1	 1	 0.0	 9.802021930193792	 5.6592	 0.0
 49	 1	 1	 0.0	 11.027274671468016	 6.3666	 0.0
 50	 1	 1	 0.0	 12.25252741274224	 5.6592	 0.0
 51	 1	 1	 0.0	 13.477780154016463	 6.3666	 0.0
 52	 1	 11	 0.15	 14.703032895290686	 5.6592	 0.0
 53	 1	 1	 -0.115	 0.0	 8.488800000000001	 0.0
 54	 1	 1	 0.0	 1.225252741274224	 7.781400000000001	 0.0
 55	 1	 1	 0.0	 2.450505482548448	 8.488800000000001	 0.0
 56	 1	 1	 0.0	 3.675758223822672	 7.781400000000001	 0.0
 57	 1	 1	 0.0	 4.901010965096896	 8.488800000000001	 0.0
 58	 1	 1	 0.0	 6.12626370637112	 7.781400000000001	 0.0
 59	 1	 1	 0.0	 7.351516447645344	 8.488800000000001	 0.0
 60	 1	 1	 0.0	 8.576769188919569	 7.781400000000001	 0.0
 61	 1	 1	 0.0	 9.802021930193792	 8.488800000000001	 0.0
 62	 1	 1	 0.0	 11.027274671468016	 7.781400000000001	 0.0
 63	 1	 1	 0.0	 12.25252741274224	 8.488800000000001	 0.0
 64	 1	 1	 0.0	 13.477780154016463	 7.781400000000001	 0.0
 65	 1	 11	 0.15	 14.703032895290686	 8.488800000000001	 0.0
 66	 1	 11	 0.15	 0.0	 9.9036	 0.0
 67	 1	 1	 0.0	 1.225252741274224	 10.611	 0.0
 68	 1	 1	 0.0	 2.450505482548448	 9.9036	 0.0
 69	 1	 1	 0.0	 3.675758223822672	 10.611	 0.0
 70	 1	 1	 0.0	 4.901010965096896	 9.9036	 0.0
 71	 1	 1	 0.0	 6.12626370637112	 10.611	 0.0
 72	 1	 1	 0.0	 7.351516447645344	 9.9036	 0.0
 73	 1	 1	 0.0	 8.576769188919569	 10.611	 0.0
 74	 1	 1	 0.0	 9.802021930193792	 9.9036	 0.0
 75	 1	 1	 0.0	 11.027274671468016	 10.611	 0.0
 76	 1	 1	 0.0	 12.25252741274224	 9.9036	 0.0
 77	 1	 1	 0.0	 13.477780154016463	 10.611	 0.0
 78	 1	 1	 -0.115	 14.703032895290686	 9.9036	 0.0
 79	 1	 1	 -0.115	 0.0	 12.733200000000002	 0.0
 80	 1	 1	 0.0	 1.225252741274224	 12.025800000000002	 0.0
 81	 1	 1	 0.0	 2.450505482548448	 12.733200000000002	 0.0
 82	 1	 1	 0.0	 3.675758223822672	 12.025800000000002	 0.0
 83	 1	 1	 0.0	 4.901010965096896	 12.733200000000002	 0.0
 84	 1	 1	 0.0	 6.12626370637112	 12.025800000000002	 0.0
 85	 1	 1	 0.0	 7.351516447645344	 12.733200000000002	 0.0
 86	 1	 1	 0.0	 8.576769188919569	 12.025800000000002	 0.0
 87	 1	 1	 0.0	 9.802021930193792	 12.733200000000002	 0.0
 88	 1	 1	 0.0	 11.027274671468016	 12.025800000000002	 0.0
 89	 1	 1	 0.0	 12.25252741274224	 12.733200000000002	 0.0
 90	 1	 1	 0.0	 13.477780154016463	 12.025800000000002	 0.0
 91	 1	 1	 -0.115	 14.703032895290686	 12.733200000000002	 0.0
 92	 1	 1	 -0.115	 0.0	 14.148	 0.0
 93	 1	 1	 -0.115	 1.225252741274224	 14.8554	 0.0
 94	 1	 1	 0.0	 2.450505482548448	 14.148	 0.0
 95	 1	 1	 -0.115	 3.675758223822672	 14.8554	 0.0
 96	 1	 1	 0.0	 4.901010965096896	 14.148	 0.0
 97	 1	 11	 0.15	 6.12626370637112	 14.8554	 0.0
 98	 1	 1	 0.0	 7.351516447645344	 14.148	 0.0
 99	 1	 11	 0.15	 8.576769188919569	 14.8554	 0.0
 100	 1	 1	 0.0	 9.802021930193792	 14.148	 0.0
 101	 1	 11	 0.15	 11.027274671468016	 14.8554	 0.0
 102	 1	 1	 0.0	 12.25252741274224	 14.148	 0.0
 103	 1	 1	 -0.115	 13.477780154016463	 14.8554	 0.0
 104	 1	 1	 -0.115	 14.703032895290686	 14.148	 0.0
 105	 1	 7	 -0.585	 1.225252741274224	 -2.1074	 0.0
 106	 1	 7	 -0.585	 3.675758223822672	 -2.1074	 0.0
 107	 1	 2	 0.115	 6.12626370637112	 -1.7844	 0.0
 108	 1	 2	 0.115	 8.576769188919569	 -1.7844	 0.0
 109	 1	 2	 0.115	 11.027274671468016	 -1.7844	 0.0
 110	 1	 7	 -0.585	 13.477780154016463	 -2.1074	 0.0
 111	 1	 2	 0.115	 1.225252741274224	 15.9324	 0.0
 112	 1	 2	 0.115	 3.675758223822672	 15.9324	 0.0
 113	 1	 7	 -0.585	 6.12626370637112	 16.255399999999998	 0.0
 114	 1	 7	 -0.585	 8.576769188919569	 16.255399999999998	 0.0
 115	 1	 7	 -0.585	 11.027274671468016	 16.255399999999998	 0.0
 116	 1	 2	 0.115	 13.477780154016463	 15.9324	 0.0
 117	 1	 7	 -0.585	 -1.2124355652982142	 -0.7	 0.0
 118	 1	 2	 0.115	 -0.9327093598758405	 1.9533	 0.0
 119	 1	 2	 0.115	 15.635742255166528	 -0.5385	 0.0
 120	 1	 7	 -0.585	 15.915468460588901	 2.114799999999999	 0.0
 121	 1	 2	 0.115	 -0.9327093598758405	 3.7059000000000006	 0.0
 122	 1	 2	 0.115	 -0.9327093598758405	 6.1977	 0.0
 123	 1	 2	 0.115	 15.635742255166528	 3.7059000000000006	 0.0
 124	 1	 7	 -0.585	 15.915468460588901	 6.3591999999999995	 0.0
 125	 1	 2	 0.115	 -0.9327093598758405	 7.950300000000001	 0.0
 126	 1	 7	 -0.585	 -1.2124355652982146	 10.6036	 0.0
 127	 1	 7	 -0.585	 15.915468460588901	 7.788800000000002	 0.0
 128	 1	 2	 0.115	 15.635742255166528	 10.4421	 0.0
 129	 1	 2	 0.115	 -0.9327093598758405	 12.194700000000001	 0.0
 130	 1	 2	 0.115	 -0.9327093598758405	 14.686499999999999	 0.0
 131	 1	 2	 0.115	 15.635742255166528	 12.194700000000001	 0.0
 132	 1	 2	 0.115	 15.635742255166528	 14.686499999999999	 0.0
 133	 1	 5	 0.435	 1.225252741274224	 -2.8074000000000003	 0.7
 134	 1	 5	 0.435	 3.675758223822672	 -2.8074000000000003	 -0.7
 135	 1	 5	 0.435	 13.477780154016463	 -2.8074000000000003	 -0.7
 136	 1	 5	 0.435	 6.12626370637112	 16.955399999999997	 -0.7
 137	 1	 5	 0.435	 8.576769188919569	 16.955399999999997	 -0.7
 138	 1	 5	 0.435	 11.027274671468016	 16.955399999999997	 -0.7
 139	 1	 5	 0.435	 -1.8186533479473213	 -1.0499999999999998	 -0.7
 140	 1	 5	 0.435	 16.52168624323801	 2.4647999999999985	 0.7
 141	 1	 5	 0.435	 16.52168624323801	 6.709199999999999	 -0.7
 142	 1	 5	 0.435	 -1.818653347947322	 10.9536	 0.7
 143	 1	 5	 0.435	 16.52168624323801	 7.438800000000002	 -0.7
 
 Bonds 
 
1	 1	 1	 2
2	 2	 2	 3
3	 2	 3	 4
4	 2	 4	 5
5	 3	 5	 6
6	 3	 6	 7
7	 3	 7	 8
8	 3	 8	 9
9	 3	 9	 10
10	 3	 10	 11
11	 2	 11	 12
12	 2	 12	 13
13	 3	 14	 15
14	 3	 15	 16
15	 3	 16	 17
16	 3	 17	 18
17	 3	 18	 19
18	 3	 19	 20
19	 3	 20	 21
20	 3	 21	 22
21	 3	 22	 23
22	 3	 23	 24
23	 3	 24	 25
24	 2	 25	 26
25	 3	 27	 28
26	 3	 28	 29
27	 3	 29	 30
28	 3	 30	 31
29	 3	 31	 32
30	 3	 32	 33
31	 3	 33	 34
32	 3	 34	 35
33	 3	 35	 36
34	 3	 36	 37
35	 3	 37	 38
36	 3	 38	 39
37	 3	 40	 41
38	 3	 41	 42
39	 3	 42	 43
40	 3	 43	 44
41	 3	 44	 45
42	 3	 45	 46
43	 3	 46	 47
44	 3	 47	 48
45	 3	 48	 49
46	 3	 49	 50
47	 3	 50	 51
48	 2	 51	 52
49	 3	 53	 54
50	 3	 54	 55
51	 3	 55	 56
52	 3	 56	 57
53	 3	 57	 58
54	 3	 58	 59
55	 3	 59	 60
56	 3	 60	 61
57	 3	 61	 62
58	 3	 62	 63
59	 3	 63	 64
60	 2	 64	 65
61	 2	 66	 67
62	 3	 67	 68
63	 3	 68	 69
64	 3	 69	 70
65	 3	 70	 71
66	 3	 71	 72
67	 3	 72	 73
68	 3	 73	 74
69	 3	 74	 75
70	 3	 75	 76
71	 3	 76	 77
72	 3	 77	 78
73	 3	 79	 80
74	 3	 80	 81
75	 3	 81	 82
76	 3	 82	 83
77	 3	 83	 84
78	 3	 84	 85
79	 3	 85	 86
80	 3	 86	 87
81	 3	 87	 88
82	 3	 88	 89
83	 3	 89	 90
84	 3	 90	 91
85	 3	 92	 93
86	 3	 93	 94
87	 3	 94	 95
88	 3	 95	 96
89	 2	 96	 97
90	 2	 97	 98
91	 2	 98	 99
92	 2	 99	 100
93	 2	 100	 101
94	 2	 101	 102
95	 3	 102	 103
96	 3	 103	 104
97	 2	 1	 14
98	 3	 3	 16
99	 3	 5	 18
100	 3	 7	 20
101	 3	 9	 22
102	 3	 11	 24
103	 2	 13	 26
104	 3	 15	 28
105	 3	 17	 30
106	 3	 19	 32
107	 3	 21	 34
108	 3	 23	 36
109	 3	 25	 38
110	 3	 27	 40
111	 3	 29	 42
112	 3	 31	 44
113	 3	 33	 46
114	 3	 35	 48
115	 3	 37	 50
116	 2	 39	 52
117	 3	 41	 54
118	 3	 43	 56
119	 3	 45	 58
120	 3	 47	 60
121	 3	 49	 62
122	 3	 51	 64
123	 2	 53	 66
124	 3	 55	 68
125	 3	 57	 70
126	 3	 59	 72
127	 3	 61	 74
128	 3	 63	 76
129	 2	 65	 78
130	 3	 67	 80
131	 3	 69	 82
132	 3	 71	 84
133	 3	 73	 86
134	 3	 75	 88
135	 3	 77	 90
136	 3	 79	 92
137	 3	 81	 94
138	 3	 83	 96
139	 3	 85	 98
140	 3	 87	 100
141	 3	 89	 102
142	 3	 91	 104
143	 4	 2	 105
144	 4	 4	 106
145	 5	 6	 107
146	 5	 8	 108
147	 5	 10	 109
148	 4	 12	 110
149	 5	 93	 111
150	 5	 95	 112
151	 4	 97	 113
152	 4	 99	 114
153	 4	 101	 115
154	 5	 103	 116
155	 4	 1	 117
156	 5	 14	 118
157	 5	 13	 119
158	 4	 26	 120
159	 5	 27	 121
160	 5	 40	 122
161	 5	 39	 123
162	 4	 52	 124
163	 5	 53	 125
164	 4	 66	 126
165	 4	 65	 127
166	 5	 78	 128
167	 5	 79	 129
168	 5	 92	 130
169	 5	 91	 131
170	 5	 104	 132
171	 6	 105	 133
172	 6	 106	 134
173	 6	 110	 135
174	 6	 113	 136
175	 6	 114	 137
176	 6	 115	 138
177	 6	 117	 139
178	 6	 120	 140
179	 6	 124	 141
180	 6	 126	 142
181	 6	 127	 143

 Angles 
 
1	 1	 2	 1	 117
2	 2	 2	 1	 14
3	 3	 117	 1	 14
4	 1	 1	 2	 105
5	 2	 1	 2	 3
6	 3	 105	 2	 3
7	 4	 2	 3	 4
8	 5	 2	 3	 16
9	 5	 4	 3	 16
10	 3	 106	 4	 3
11	 3	 106	 4	 5
12	 6	 3	 4	 5
13	 5	 18	 5	 4
14	 7	 18	 5	 6
15	 5	 4	 5	 6
16	 8	 107	 6	 5
17	 8	 107	 6	 7
18	 7	 5	 6	 7
19	 7	 20	 7	 6
20	 7	 20	 7	 8
21	 7	 6	 7	 8
22	 8	 9	 8	 108
23	 7	 9	 8	 7
24	 8	 108	 8	 7
25	 7	 10	 9	 22
26	 7	 10	 9	 8
27	 7	 22	 9	 8
28	 7	 9	 10	 11
29	 8	 9	 10	 109
30	 8	 11	 10	 109
31	 5	 10	 11	 12
32	 7	 10	 11	 24
33	 5	 12	 11	 24
34	 6	 11	 12	 13
35	 3	 11	 12	 110
36	 3	 13	 12	 110
37	 4	 26	 13	 12
38	 9	 26	 13	 119
39	 9	 12	 13	 119
40	 9	 1	 14	 118
41	 5	 1	 14	 15
42	 8	 118	 14	 15
43	 7	 28	 15	 14
44	 7	 28	 15	 16
45	 7	 14	 15	 16
46	 7	 17	 16	 3
47	 7	 17	 16	 15
48	 7	 3	 16	 15
49	 7	 18	 17	 30
50	 7	 18	 17	 16
51	 7	 30	 17	 16
52	 7	 17	 18	 19
53	 7	 17	 18	 5
54	 7	 19	 18	 5
55	 7	 18	 19	 20
56	 7	 18	 19	 32
57	 7	 20	 19	 32
58	 7	 19	 20	 21
59	 7	 19	 20	 7
60	 7	 21	 20	 7
61	 7	 34	 21	 20
62	 7	 34	 21	 22
63	 7	 20	 21	 22
64	 7	 9	 22	 21
65	 7	 9	 22	 23
66	 7	 21	 22	 23
67	 7	 36	 23	 22
68	 7	 36	 23	 24
69	 7	 22	 23	 24
70	 7	 25	 24	 11
71	 7	 25	 24	 23
72	 7	 11	 24	 23
73	 5	 26	 25	 38
74	 5	 26	 25	 24
75	 7	 38	 25	 24
76	 6	 25	 26	 13
77	 3	 25	 26	 120
78	 3	 13	 26	 120
79	 8	 121	 27	 28
80	 8	 121	 27	 40
81	 7	 28	 27	 40
82	 7	 27	 28	 29
83	 7	 27	 28	 15
84	 7	 29	 28	 15
85	 7	 42	 29	 28
86	 7	 42	 29	 30
87	 7	 28	 29	 30
88	 7	 17	 30	 29
89	 7	 17	 30	 31
90	 7	 29	 30	 31
91	 7	 44	 31	 30
92	 7	 44	 31	 32
93	 7	 30	 31	 32
94	 7	 33	 32	 19
95	 7	 33	 32	 31
96	 7	 19	 32	 31
97	 7	 34	 33	 46
98	 7	 34	 33	 32
99	 7	 46	 33	 32
100	 7	 33	 34	 35
101	 7	 33	 34	 21
102	 7	 35	 34	 21
103	 7	 34	 35	 36
104	 7	 34	 35	 48
105	 7	 36	 35	 48
106	 7	 35	 36	 37
107	 7	 35	 36	 23
108	 7	 37	 36	 23
109	 7	 50	 37	 36
110	 7	 50	 37	 38
111	 7	 36	 37	 38
112	 7	 25	 38	 37
113	 7	 25	 38	 39
114	 7	 37	 38	 39
115	 9	 123	 39	 52
116	 8	 123	 39	 38
117	 5	 52	 39	 38
118	 8	 41	 40	 122
119	 7	 41	 40	 27
120	 8	 122	 40	 27
121	 7	 42	 41	 54
122	 7	 42	 41	 40
123	 7	 54	 41	 40
124	 7	 41	 42	 43
125	 7	 41	 42	 29
126	 7	 43	 42	 29
127	 7	 42	 43	 44
128	 7	 42	 43	 56
129	 7	 44	 43	 56
130	 7	 43	 44	 45
131	 7	 43	 44	 31
132	 7	 45	 44	 31
133	 7	 58	 45	 44
134	 7	 58	 45	 46
135	 7	 44	 45	 46
136	 7	 33	 46	 45
137	 7	 33	 46	 47
138	 7	 45	 46	 47
139	 7	 60	 47	 46
140	 7	 60	 47	 48
141	 7	 46	 47	 48
142	 7	 49	 48	 35
143	 7	 49	 48	 47
144	 7	 35	 48	 47
145	 7	 50	 49	 62
146	 7	 50	 49	 48
147	 7	 62	 49	 48
148	 7	 49	 50	 51
149	 7	 49	 50	 37
150	 7	 51	 50	 37
151	 5	 50	 51	 52
152	 7	 50	 51	 64
153	 5	 52	 51	 64
154	 3	 51	 52	 124
155	 6	 51	 52	 39
156	 3	 124	 52	 39
157	 9	 66	 53	 125
158	 5	 66	 53	 54
159	 8	 125	 53	 54
160	 7	 41	 54	 53
161	 7	 41	 54	 55
162	 7	 53	 54	 55
163	 7	 68	 55	 54
164	 7	 68	 55	 56
165	 7	 54	 55	 56
166	 7	 57	 56	 43
167	 7	 57	 56	 55
168	 7	 43	 56	 55
169	 7	 58	 57	 70
170	 7	 58	 57	 56
171	 7	 70	 57	 56
172	 7	 57	 58	 59
173	 7	 57	 58	 45
174	 7	 59	 58	 45
175	 7	 58	 59	 60
176	 7	 58	 59	 72
177	 7	 60	 59	 72
178	 7	 59	 60	 61
179	 7	 59	 60	 47
180	 7	 61	 60	 47
181	 7	 74	 61	 60
182	 7	 74	 61	 62
183	 7	 60	 61	 62
184	 7	 49	 62	 61
185	 7	 49	 62	 63
186	 7	 61	 62	 63
187	 7	 76	 63	 62
188	 7	 76	 63	 64
189	 7	 62	 63	 64
190	 5	 65	 64	 51
191	 5	 65	 64	 63
192	 7	 51	 64	 63
193	 3	 78	 65	 127
194	 6	 78	 65	 64
195	 3	 127	 65	 64
196	 6	 67	 66	 53
197	 3	 67	 66	 126
198	 3	 53	 66	 126
199	 5	 66	 67	 68
200	 5	 66	 67	 80
201	 7	 68	 67	 80
202	 7	 67	 68	 69
203	 7	 67	 68	 55
204	 7	 69	 68	 55
205	 7	 82	 69	 68
206	 7	 82	 69	 70
207	 7	 68	 69	 70
208	 7	 57	 70	 69
209	 7	 57	 70	 71
210	 7	 69	 70	 71
211	 7	 84	 71	 70
212	 7	 84	 71	 72
213	 7	 70	 71	 72
214	 7	 73	 72	 59
215	 7	 73	 72	 71
216	 7	 59	 72	 71
217	 7	 74	 73	 86
218	 7	 74	 73	 72
219	 7	 86	 73	 72
220	 7	 73	 74	 75
221	 7	 73	 74	 61
222	 7	 75	 74	 61
223	 7	 74	 75	 76
224	 7	 74	 75	 88
225	 7	 76	 75	 88
226	 7	 75	 76	 77
227	 7	 75	 76	 63
228	 7	 77	 76	 63
229	 7	 90	 77	 76
230	 7	 90	 77	 78
231	 7	 76	 77	 78
232	 5	 65	 78	 77
233	 9	 65	 78	 128
234	 8	 77	 78	 128
235	 8	 129	 79	 92
236	 8	 129	 79	 80
237	 7	 92	 79	 80
238	 7	 81	 80	 67
239	 7	 81	 80	 79
240	 7	 67	 80	 79
241	 7	 82	 81	 94
242	 7	 82	 81	 80
243	 7	 94	 81	 80
244	 7	 81	 82	 83
245	 7	 81	 82	 69
246	 7	 83	 82	 69
247	 7	 82	 83	 84
248	 7	 82	 83	 96
249	 7	 84	 83	 96
250	 7	 83	 84	 85
251	 7	 83	 84	 71
252	 7	 85	 84	 71
253	 7	 98	 85	 84
254	 7	 98	 85	 86
255	 7	 84	 85	 86
256	 7	 73	 86	 85
257	 7	 73	 86	 87
258	 7	 85	 86	 87
259	 7	 100	 87	 86
260	 7	 100	 87	 88
261	 7	 86	 87	 88
262	 7	 89	 88	 75
263	 7	 89	 88	 87
264	 7	 75	 88	 87
265	 7	 90	 89	 102
266	 7	 90	 89	 88
267	 7	 102	 89	 88
268	 7	 89	 90	 91
269	 7	 89	 90	 77
270	 7	 91	 90	 77
271	 8	 90	 91	 131
272	 7	 90	 91	 104
273	 8	 131	 91	 104
274	 8	 130	 92	 93
275	 8	 130	 92	 79
276	 7	 93	 92	 79
277	 7	 92	 93	 94
278	 8	 92	 93	 111
279	 8	 94	 93	 111
280	 7	 81	 94	 93
281	 7	 81	 94	 95
282	 7	 93	 94	 95
283	 8	 112	 95	 94
284	 8	 112	 95	 96
285	 7	 94	 95	 96
286	 5	 97	 96	 83
287	 5	 97	 96	 95
288	 7	 83	 96	 95
289	 3	 113	 97	 98
290	 3	 113	 97	 96
291	 6	 98	 97	 96
292	 4	 97	 98	 99
293	 5	 97	 98	 85
294	 5	 99	 98	 85
295	 6	 98	 99	 100
296	 3	 98	 99	 114
297	 3	 100	 99	 114
298	 4	 99	 100	 101
299	 5	 99	 100	 87
300	 5	 101	 100	 87
301	 3	 115	 101	 100
302	 3	 115	 101	 102
303	 6	 100	 101	 102
304	 5	 89	 102	 101
305	 7	 89	 102	 103
306	 5	 101	 102	 103
307	 8	 116	 103	 102
308	 8	 116	 103	 104
309	 7	 102	 103	 104
310	 8	 91	 104	 132
311	 7	 91	 104	 103
312	 8	 132	 104	 103
313	 10	 2	 105	 133
314	 10	 4	 106	 134
315	 10	 12	 110	 135
316	 10	 97	 113	 136
317	 10	 137	 114	 99
318	 10	 138	 115	 101
319	 10	 1	 117	 139
320	 10	 26	 120	 140
321	 10	 52	 124	 141
322	 10	 66	 126	 142
323	 10	 65	 127	 143

 Dihedrals 
 
1	1 	117 	1 	2 	105 
2	2 	117 	1 	2 	3 
3	2 	14 	1 	2 	105 
4	3 	14 	1 	2 	3 
5	4 	1 	2 	3 	4 
6	5 	1 	2 	3 	16 
7	6 	105 	2 	3 	4 
8	7 	105 	2 	3 	16 
9	6 	2 	3 	4 	106 
10	8 	2 	3 	4 	5 
11	7 	16 	3 	4 	106 
12	9 	16 	3 	4 	5 
13	7 	106 	4 	5 	18 
14	7 	106 	4 	5 	6 
15	9 	3 	4 	5 	18 
16	9 	3 	4 	5 	6 
17	10 	18 	5 	6 	107 
18	11 	18 	5 	6 	7 
19	12 	4 	5 	6 	107 
20	13 	4 	5 	6 	7 
21	10 	107 	6 	7 	20 
22	10 	107 	6 	7 	8 
23	11 	5 	6 	7 	20 
24	11 	5 	6 	7 	8 
25	11 	20 	7 	8 	9 
26	10 	20 	7 	8 	108 
27	11 	6 	7 	8 	9 
28	10 	6 	7 	8 	108 
29	10 	108 	8 	9 	10 
30	10 	108 	8 	9 	22 
31	11 	7 	8 	9 	10 
32	11 	7 	8 	9 	22 
33	11 	22 	9 	10 	11 
34	10 	22 	9 	10 	109 
35	11 	8 	9 	10 	11 
36	10 	8 	9 	10 	109 
37	13 	9 	10 	11 	12 
38	11 	9 	10 	11 	24 
39	12 	109 	10 	11 	12 
40	10 	109 	10 	11 	24 
41	9 	10 	11 	12 	13 
42	7 	10 	11 	12 	110 
43	9 	24 	11 	12 	13 
44	7 	24 	11 	12 	110 
45	8 	11 	12 	13 	26 
46	14 	11 	12 	13 	119 
47	6 	110 	12 	13 	26 
48	15 	110 	12 	13 	119 
49	13 	1 	14 	15 	28 
50	13 	1 	14 	15 	16 
51	10 	118 	14 	15 	28 
52	10 	118 	14 	15 	16 
53	11 	28 	15 	16 	17 
54	11 	28 	15 	16 	3 
55	11 	14 	15 	16 	17 
56	11 	14 	15 	16 	3 
57	11 	3 	16 	17 	18 
58	11 	3 	16 	17 	30 
59	11 	15 	16 	17 	18 
60	11 	15 	16 	17 	30 
61	11 	30 	17 	18 	19 
62	11 	30 	17 	18 	5 
63	11 	16 	17 	18 	19 
64	11 	16 	17 	18 	5 
65	11 	17 	18 	19 	20 
66	11 	17 	18 	19 	32 
67	11 	5 	18 	19 	20 
68	11 	5 	18 	19 	32 
69	11 	18 	19 	20 	21 
70	11 	18 	19 	20 	7 
71	11 	32 	19 	20 	21 
72	11 	32 	19 	20 	7 
73	11 	19 	20 	21 	34 
74	11 	19 	20 	21 	22 
75	11 	7 	20 	21 	34 
76	11 	7 	20 	21 	22 
77	11 	34 	21 	22 	9 
78	11 	34 	21 	22 	23 
79	11 	20 	21 	22 	9 
80	11 	20 	21 	22 	23 
81	11 	9 	22 	23 	36 
82	11 	9 	22 	23 	24 
83	11 	21 	22 	23 	36 
84	11 	21 	22 	23 	24 
85	11 	36 	23 	24 	25 
86	11 	36 	23 	24 	11 
87	11 	22 	23 	24 	25 
88	11 	22 	23 	24 	11 
89	13 	11 	24 	25 	26 
90	11 	11 	24 	25 	38 
91	13 	23 	24 	25 	26 
92	11 	23 	24 	25 	38 
93	9 	38 	25 	26 	13 
94	7 	38 	25 	26 	120 
95	9 	24 	25 	26 	13 
96	7 	24 	25 	26 	120 
97	10 	121 	27 	28 	29 
98	10 	121 	27 	28 	15 
99	11 	40 	27 	28 	29 
100	11 	40 	27 	28 	15 
101	11 	27 	28 	29 	42 
102	11 	27 	28 	29 	30 
103	11 	15 	28 	29 	42 
104	11 	15 	28 	29 	30 
105	11 	42 	29 	30 	17 
106	11 	42 	29 	30 	31 
107	11 	28 	29 	30 	17 
108	11 	28 	29 	30 	31 
109	11 	17 	30 	31 	44 
110	11 	17 	30 	31 	32 
111	11 	29 	30 	31 	44 
112	11 	29 	30 	31 	32 
113	11 	44 	31 	32 	33 
114	11 	44 	31 	32 	19 
115	11 	30 	31 	32 	33 
116	11 	30 	31 	32 	19 
117	11 	19 	32 	33 	34 
118	11 	19 	32 	33 	46 
119	11 	31 	32 	33 	34 
120	11 	31 	32 	33 	46 
121	11 	46 	33 	34 	35 
122	11 	46 	33 	34 	21 
123	11 	32 	33 	34 	35 
124	11 	32 	33 	34 	21 
125	11 	33 	34 	35 	36 
126	11 	33 	34 	35 	48 
127	11 	21 	34 	35 	36 
128	11 	21 	34 	35 	48 
129	11 	34 	35 	36 	37 
130	11 	34 	35 	36 	23 
131	11 	48 	35 	36 	37 
132	11 	48 	35 	36 	23 
133	11 	35 	36 	37 	50 
134	11 	35 	36 	37 	38 
135	11 	23 	36 	37 	50 
136	11 	23 	36 	37 	38 
137	11 	50 	37 	38 	25 
138	11 	50 	37 	38 	39 
139	11 	36 	37 	38 	25 
140	11 	36 	37 	38 	39 
141	10 	25 	38 	39 	123 
142	13 	25 	38 	39 	52 
143	10 	37 	38 	39 	123 
144	13 	37 	38 	39 	52 
145	10 	122 	40 	41 	42 
146	10 	122 	40 	41 	54 
147	11 	27 	40 	41 	42 
148	11 	27 	40 	41 	54 
149	11 	54 	41 	42 	43 
150	11 	54 	41 	42 	29 
151	11 	40 	41 	42 	43 
152	11 	40 	41 	42 	29 
153	11 	41 	42 	43 	44 
154	11 	41 	42 	43 	56 
155	11 	29 	42 	43 	44 
156	11 	29 	42 	43 	56 
157	11 	42 	43 	44 	45 
158	11 	42 	43 	44 	31 
159	11 	56 	43 	44 	45 
160	11 	56 	43 	44 	31 
161	11 	43 	44 	45 	58 
162	11 	43 	44 	45 	46 
163	11 	31 	44 	45 	58 
164	11 	31 	44 	45 	46 
165	11 	58 	45 	46 	33 
166	11 	58 	45 	46 	47 
167	11 	44 	45 	46 	33 
168	11 	44 	45 	46 	47 
169	11 	33 	46 	47 	60 
170	11 	33 	46 	47 	48 
171	11 	45 	46 	47 	60 
172	11 	45 	46 	47 	48 
173	11 	60 	47 	48 	49 
174	11 	60 	47 	48 	35 
175	11 	46 	47 	48 	49 
176	11 	46 	47 	48 	35 
177	11 	35 	48 	49 	50 
178	11 	35 	48 	49 	62 
179	11 	47 	48 	49 	50 
180	11 	47 	48 	49 	62 
181	11 	62 	49 	50 	51 
182	11 	62 	49 	50 	37 
183	11 	48 	49 	50 	51 
184	11 	48 	49 	50 	37 
185	13 	49 	50 	51 	52 
186	11 	49 	50 	51 	64 
187	13 	37 	50 	51 	52 
188	11 	37 	50 	51 	64 
189	7 	50 	51 	52 	124 
190	9 	50 	51 	52 	39 
191	7 	64 	51 	52 	124 
192	9 	64 	51 	52 	39 
193	13 	66 	53 	54 	41 
194	13 	66 	53 	54 	55 
195	10 	125 	53 	54 	41 
196	10 	125 	53 	54 	55 
197	11 	41 	54 	55 	68 
198	11 	41 	54 	55 	56 
199	11 	53 	54 	55 	68 
200	11 	53 	54 	55 	56 
201	11 	68 	55 	56 	57 
202	11 	68 	55 	56 	43 
203	11 	54 	55 	56 	57 
204	11 	54 	55 	56 	43 
205	11 	43 	56 	57 	58 
206	11 	43 	56 	57 	70 
207	11 	55 	56 	57 	58 
208	11 	55 	56 	57 	70 
209	11 	70 	57 	58 	59 
210	11 	70 	57 	58 	45 
211	11 	56 	57 	58 	59 
212	11 	56 	57 	58 	45 
213	11 	57 	58 	59 	60 
214	11 	57 	58 	59 	72 
215	11 	45 	58 	59 	60 
216	11 	45 	58 	59 	72 
217	11 	58 	59 	60 	61 
218	11 	58 	59 	60 	47 
219	11 	72 	59 	60 	61 
220	11 	72 	59 	60 	47 
221	11 	59 	60 	61 	74 
222	11 	59 	60 	61 	62 
223	11 	47 	60 	61 	74 
224	11 	47 	60 	61 	62 
225	11 	74 	61 	62 	49 
226	11 	74 	61 	62 	63 
227	11 	60 	61 	62 	49 
228	11 	60 	61 	62 	63 
229	11 	49 	62 	63 	76 
230	11 	49 	62 	63 	64 
231	11 	61 	62 	63 	76 
232	11 	61 	62 	63 	64 
233	13 	76 	63 	64 	65 
234	11 	76 	63 	64 	51 
235	13 	62 	63 	64 	65 
236	11 	62 	63 	64 	51 
237	9 	51 	64 	65 	78 
238	7 	51 	64 	65 	127 
239	9 	63 	64 	65 	78 
240	7 	63 	64 	65 	127 
241	9 	53 	66 	67 	68 
242	9 	53 	66 	67 	80 
243	7 	126 	66 	67 	68 
244	7 	126 	66 	67 	80 
245	13 	66 	67 	68 	69 
246	13 	66 	67 	68 	55 
247	11 	80 	67 	68 	69 
248	11 	80 	67 	68 	55 
249	11 	67 	68 	69 	82 
250	11 	67 	68 	69 	70 
251	11 	55 	68 	69 	82 
252	11 	55 	68 	69 	70 
253	11 	82 	69 	70 	57 
254	11 	82 	69 	70 	71 
255	11 	68 	69 	70 	57 
256	11 	68 	69 	70 	71 
257	11 	57 	70 	71 	84 
258	11 	57 	70 	71 	72 
259	11 	69 	70 	71 	84 
260	11 	69 	70 	71 	72 
261	11 	84 	71 	72 	73 
262	11 	84 	71 	72 	59 
263	11 	70 	71 	72 	73 
264	11 	70 	71 	72 	59 
265	11 	59 	72 	73 	74 
266	11 	59 	72 	73 	86 
267	11 	71 	72 	73 	74 
268	11 	71 	72 	73 	86 
269	11 	86 	73 	74 	75 
270	11 	86 	73 	74 	61 
271	11 	72 	73 	74 	75 
272	11 	72 	73 	74 	61 
273	11 	73 	74 	75 	76 
274	11 	73 	74 	75 	88 
275	11 	61 	74 	75 	76 
276	11 	61 	74 	75 	88 
277	11 	74 	75 	76 	77 
278	11 	74 	75 	76 	63 
279	11 	88 	75 	76 	77 
280	11 	88 	75 	76 	63 
281	11 	75 	76 	77 	90 
282	11 	75 	76 	77 	78 
283	11 	63 	76 	77 	90 
284	11 	63 	76 	77 	78 
285	13 	90 	77 	78 	65 
286	10 	90 	77 	78 	128 
287	13 	76 	77 	78 	65 
288	10 	76 	77 	78 	128 
289	10 	129 	79 	80 	81 
290	10 	129 	79 	80 	67 
291	11 	92 	79 	80 	81 
292	11 	92 	79 	80 	67 
293	11 	67 	80 	81 	82 
294	11 	67 	80 	81 	94 
295	11 	79 	80 	81 	82 
296	11 	79 	80 	81 	94 
297	11 	94 	81 	82 	83 
298	11 	94 	81 	82 	69 
299	11 	80 	81 	82 	83 
300	11 	80 	81 	82 	69 
301	11 	81 	82 	83 	84 
302	11 	81 	82 	83 	96 
303	11 	69 	82 	83 	84 
304	11 	69 	82 	83 	96 
305	11 	82 	83 	84 	85 
306	11 	82 	83 	84 	71 
307	11 	96 	83 	84 	85 
308	11 	96 	83 	84 	71 
309	11 	83 	84 	85 	98 
310	11 	83 	84 	85 	86 
311	11 	71 	84 	85 	98 
312	11 	71 	84 	85 	86 
313	11 	98 	85 	86 	73 
314	11 	98 	85 	86 	87 
315	11 	84 	85 	86 	73 
316	11 	84 	85 	86 	87 
317	11 	73 	86 	87 	100 
318	11 	73 	86 	87 	88 
319	11 	85 	86 	87 	100 
320	11 	85 	86 	87 	88 
321	11 	100 	87 	88 	89 
322	11 	100 	87 	88 	75 
323	11 	86 	87 	88 	89 
324	11 	86 	87 	88 	75 
325	11 	75 	88 	89 	90 
326	11 	75 	88 	89 	102 
327	11 	87 	88 	89 	90 
328	11 	87 	88 	89 	102 
329	11 	102 	89 	90 	91 
330	11 	102 	89 	90 	77 
331	11 	88 	89 	90 	91 
332	11 	88 	89 	90 	77 
333	10 	89 	90 	91 	131 
334	11 	89 	90 	91 	104 
335	10 	77 	90 	91 	131 
336	11 	77 	90 	91 	104 
337	10 	130 	92 	93 	94 
338	16 	130 	92 	93 	111 
339	11 	79 	92 	93 	94 
340	10 	79 	92 	93 	111 
341	11 	92 	93 	94 	81 
342	11 	92 	93 	94 	95 
343	10 	111 	93 	94 	81 
344	10 	111 	93 	94 	95 
345	10 	81 	94 	95 	112 
346	11 	81 	94 	95 	96 
347	10 	93 	94 	95 	112 
348	11 	93 	94 	95 	96 
349	12 	112 	95 	96 	97 
350	10 	112 	95 	96 	83 
351	13 	94 	95 	96 	97 
352	11 	94 	95 	96 	83 
353	7 	83 	96 	97 	113 
354	9 	83 	96 	97 	98 
355	7 	95 	96 	97 	113 
356	9 	95 	96 	97 	98 
357	6 	113 	97 	98 	99 
358	7 	113 	97 	98 	85 
359	8 	96 	97 	98 	99 
360	9 	96 	97 	98 	85 
361	8 	97 	98 	99 	100 
362	6 	97 	98 	99 	114 
363	9 	85 	98 	99 	100 
364	7 	85 	98 	99 	114 
365	8 	98 	99 	100 	101 
366	9 	98 	99 	100 	87 
367	6 	114 	99 	100 	101 
368	7 	114 	99 	100 	87 
369	6 	99 	100 	101 	115 
370	8 	99 	100 	101 	102 
371	7 	87 	100 	101 	115 
372	9 	87 	100 	101 	102 
373	7 	115 	101 	102 	89 
374	7 	115 	101 	102 	103 
375	9 	100 	101 	102 	89 
376	9 	100 	101 	102 	103 
377	10 	89 	102 	103 	116 
378	11 	89 	102 	103 	104 
379	12 	101 	102 	103 	116 
380	13 	101 	102 	103 	104 
381	10 	116 	103 	104 	91 
382	16 	116 	103 	104 	132 
383	11 	102 	103 	104 	91 
384	10 	102 	103 	104 	132 
385	17 	2 	1 	14 	118 
386	5 	2 	1 	14 	15 
387	15 	117 	1 	14 	118 
388	7 	117 	1 	14 	15 
389	13 	2 	3 	16 	17 
390	13 	2 	3 	16 	15 
391	13 	4 	3 	16 	17 
392	13 	4 	3 	16 	15 
393	13 	4 	5 	18 	17 
394	13 	4 	5 	18 	19 
395	11 	6 	5 	18 	17 
396	11 	6 	5 	18 	19 
397	11 	6 	7 	20 	19 
398	11 	6 	7 	20 	21 
399	11 	8 	7 	20 	19 
400	11 	8 	7 	20 	21 
401	11 	10 	9 	22 	21 
402	11 	10 	9 	22 	23 
403	11 	8 	9 	22 	21 
404	11 	8 	9 	22 	23 
405	11 	10 	11 	24 	25 
406	11 	10 	11 	24 	23 
407	13 	12 	11 	24 	25 
408	13 	12 	11 	24 	23 
409	8 	12 	13 	26 	25 
410	6 	12 	13 	26 	120 
411	14 	119 	13 	26 	25 
412	15 	119 	13 	26 	120 
413	11 	14 	15 	28 	27 
414	11 	14 	15 	28 	29 
415	11 	16 	15 	28 	27 
416	11 	16 	15 	28 	29 
417	11 	18 	17 	30 	29 
418	11 	18 	17 	30 	31 
419	11 	16 	17 	30 	29 
420	11 	16 	17 	30 	31 
421	11 	18 	19 	32 	33 
422	11 	18 	19 	32 	31 
423	11 	20 	19 	32 	33 
424	11 	20 	19 	32 	31 
425	11 	20 	21 	34 	33 
426	11 	20 	21 	34 	35 
427	11 	22 	21 	34 	33 
428	11 	22 	21 	34 	35 
429	11 	22 	23 	36 	35 
430	11 	22 	23 	36 	37 
431	11 	24 	23 	36 	35 
432	11 	24 	23 	36 	37 
433	13 	26 	25 	38 	37 
434	13 	26 	25 	38 	39 
435	11 	24 	25 	38 	37 
436	11 	24 	25 	38 	39 
437	10 	121 	27 	40 	41 
438	16 	121 	27 	40 	122 
439	11 	28 	27 	40 	41 
440	10 	28 	27 	40 	122 
441	11 	28 	29 	42 	41 
442	11 	28 	29 	42 	43 
443	11 	30 	29 	42 	41 
444	11 	30 	29 	42 	43 
445	11 	30 	31 	44 	43 
446	11 	30 	31 	44 	45 
447	11 	32 	31 	44 	43 
448	11 	32 	31 	44 	45 
449	11 	34 	33 	46 	45 
450	11 	34 	33 	46 	47 
451	11 	32 	33 	46 	45 
452	11 	32 	33 	46 	47 
453	11 	34 	35 	48 	49 
454	11 	34 	35 	48 	47 
455	11 	36 	35 	48 	49 
456	11 	36 	35 	48 	47 
457	11 	36 	37 	50 	49 
458	11 	36 	37 	50 	51 
459	11 	38 	37 	50 	49 
460	11 	38 	37 	50 	51 
461	14 	123 	39 	52 	51 
462	15 	123 	39 	52 	124 
463	9 	38 	39 	52 	51 
464	7 	38 	39 	52 	124 
465	11 	42 	41 	54 	53 
466	11 	42 	41 	54 	55 
467	11 	40 	41 	54 	53 
468	11 	40 	41 	54 	55 
469	11 	42 	43 	56 	57 
470	11 	42 	43 	56 	55 
471	11 	44 	43 	56 	57 
472	11 	44 	43 	56 	55 
473	11 	44 	45 	58 	57 
474	11 	44 	45 	58 	59 
475	11 	46 	45 	58 	57 
476	11 	46 	45 	58 	59 
477	11 	46 	47 	60 	59 
478	11 	46 	47 	60 	61 
479	11 	48 	47 	60 	59 
480	11 	48 	47 	60 	61 
481	11 	50 	49 	62 	61 
482	11 	50 	49 	62 	63 
483	11 	48 	49 	62 	61 
484	11 	48 	49 	62 	63 
485	13 	50 	51 	64 	65 
486	11 	50 	51 	64 	63 
487	18 	52 	51 	64 	65 
488	13 	52 	51 	64 	63 
489	14 	125 	53 	66 	67 
490	15 	125 	53 	66 	126 
491	9 	54 	53 	66 	67 
492	7 	54 	53 	66 	126 
493	11 	54 	55 	68 	67 
494	11 	54 	55 	68 	69 
495	11 	56 	55 	68 	67 
496	11 	56 	55 	68 	69 
497	11 	58 	57 	70 	69 
498	11 	58 	57 	70 	71 
499	11 	56 	57 	70 	69 
500	11 	56 	57 	70 	71 
501	11 	58 	59 	72 	73 
502	11 	58 	59 	72 	71 
503	11 	60 	59 	72 	73 
504	11 	60 	59 	72 	71 
505	11 	60 	61 	74 	73 
506	11 	60 	61 	74 	75 
507	11 	62 	61 	74 	73 
508	11 	62 	61 	74 	75 
509	11 	62 	63 	76 	75 
510	11 	62 	63 	76 	77 
511	11 	64 	63 	76 	75 
512	11 	64 	63 	76 	77 
513	7 	127 	65 	78 	77 
514	15 	127 	65 	78 	128 
515	9 	64 	65 	78 	77 
516	14 	64 	65 	78 	128 