# GO
263 atoms 
330 bonds 
613 angles 
1191 dihedrals 
147 impropers 

354 atom types 
11 bond types 
24 angle types 
56 dihedral types 
12 improper types 

0.0	122.0	 xlo xhi 
0.0	120.0	 ylo yhi 
0.0	3.4827	 zlo zhi 


 Masses 
 
1	12.011
2	1.008
3	12.011
4	15.999
5	1.008
6	15.999
7	15.999
8	12.011
9	15.999
10	15.999
11	12.011
12	12.011
13	15.999
354	40.08
349	22.99

 Pair Coeffs 
 
1	0.07	3.55
2	0.03	2.42
3	0.066	3.5
4	0.17	3.12
5	0.0	0.0
6	0.14	2.9
7	0.17	3.07
8	0.105	3.75
9	0.21	2.96
10	0.17	3.0
11	0.07	3.55
12	0.105	3.75
13	0.21	2.96
354	0.449657	2.412031
349	0.0005	4.07

 Bond Coeffs 
 
1	469.0	1.4
2	469.0	1.4
3	317.0	1.51
4	268.0	1.529
5	317.0	1.51
6	469.0	1.4
7	367.0	1.08
8	450.0	1.364
9	553.0	0.945
10	320.0	1.41
11	553.0	0.945

 Angle Coeffs 
 
1	35.0	120.0
2	63.0	120.0
3	63.0	120.0
4	70.0	120.0
5	63.0	120.0
6	35.0	120.0
7	70.0	120.0
8	70.0	120.0
9	50.0	109.5
10	40.0	109.5
11	63.0	114.0
12	50.0	109.5
13	70.0	130.0
14	58.35	112.7
15	35.0	117.0
16	70.0	120.0
17	63.0	120.0
18	70.0	120.0
19	70.0	123.0
20	40.0	109.5
21	40.0	109.5
22	50.0	109.5
23	35.0	113.0
24	55.0	108.5

 Dihedral Coeffs 
 
1	0.0	7.25	0.0	0.0
2	0.0	7.25	0.0	0.0
3	0.0	7.25	0.0	0.0
4	0.0	7.25	0.0	0.0
5	0.0	7.25	0.0	0.0
6	0.0	7.25	0.0	0.0
7	0.0	7.25	0.0	0.0
8	0.0	7.25	0.0	0.0
9	0.0	7.25	0.0	0.0
10	0.0	7.25	0.0	0.0
11	0.0	7.25	0.0	0.0
12	0.0	7.25	0.0	0.0
13	0.0	7.25	0.0	0.0
14	0.0	0.0	0.0	0.0
15	0.0	0.0	0.0	0.0
16	0.0	0.0	0.0	0.0
17	0.0	-8.0	0.0	0.0
18	1.711	-0.5	0.663	0.0
19	2.817	-0.169	0.543	0.0
20	1.711	-0.5	0.663	0.0
21	-1.552	0.0	0.0	0.0
22	0.0	0.0	0.366	0.0
23	9.508	0.0	0.0	0.0
24	-4.344	-1.714	0.0	0.0
25	0.0	-8.0	0.0	0.0
26	0.0	0.0	0.468	0.0
27	0.0	0.0	0.468	0.0
28	0.0	7.25	0.0	0.0
29	1.3	-0.05	0.2	0.0
30	0.0	0.0	0.0	0.0
31	0.0	0.0	0.0	0.0
32	0.0	7.25	0.0	0.0
33	0.0	7.25	0.0	0.0
34	0.0	7.25	0.0	0.0
35	0.0	7.25	0.0	0.0
36	0.0	0.0	0.0	0.0
37	0.0	0.0	0.0	0.0
38	0.0	0.0	0.0	0.0
39	0.0	-8.0	0.0	0.0
40	0.0	-8.0	0.0	0.0
41	0.0	0.0	0.318	0.0
42	0.0	7.25	0.0	0.0
43	0.0	7.25	0.0	0.0
44	0.0	7.25	0.0	0.0
45	0.0	0.0	0.0	0.0
46	0.0	-8.0	0.0	0.0
47	0.0	0.0	0.0	0.0
48	0.0	7.25	0.0	0.0
49	0.0	7.25	0.0	0.0
50	0.0	7.25	0.0	0.0
51	0.0	1.682	0.0	0.0
52	0.0	1.682	0.0	0.0
53	0.0	1.682	0.0	0.0
54	-0.356	-0.174	0.492	0.0
55	-0.9	0.0	0.0	0.0
56	-0.9	0.0	0.0	0.0

 Improper Coeffs 
 
1	5.0	180.0
2	5.0	180.0
3	5.0	180.0
4	5.0	180.0
5	5.0	180.0
6	5.0	180.0
7	5.0	180.0
8	5.0	180.0
9	5.0	180.0
10	5.0	180.0
11	5.0	180.0
12	5.0	180.0

 Atoms 
 
1	 1	 1	 -0.115	 0.0	 0.0	 0.0
 2	 1	 1	 -0.115	 1.225252741274224	 -0.7074	 0.0
 3	 1	 1	 0.0	 2.450505482548448	 0.0	 0.0
 4	 1	 1	 -0.115	 3.675758223822672	 -0.7074	 0.0
 5	 1	 1	 0.0	 4.901010965096896	 0.0	 0.0
 6	 1	 1	 -0.115	 6.12626370637112	 -0.7074	 0.0
 7	 1	 1	 0.0	 7.351516447645344	 0.0	 0.0
 8	 1	 11	 0.15	 8.576769188919569	 -0.7074	 0.0
 9	 1	 1	 0.0	 9.802021930193792	 0.0	 0.0
 10	 1	 1	 -0.115	 11.027274671468016	 -0.7074	 0.0
 11	 1	 1	 0.0	 12.25252741274224	 0.0	 0.0
 12	 1	 1	 -0.115	 13.477780154016463	 -0.7074	 0.0
 13	 1	 1	 0.0	 14.703032895290686	 0.0	 0.0
 14	 1	 11	 0.15	 15.928285636564912	 -0.7074	 0.0
 15	 1	 1	 0.0	 17.153538377839137	 0.0	 0.0
 16	 1	 1	 -0.115	 18.378791119113362	 -0.7074	 0.0
 17	 1	 11	 0.15	 19.604043860387584	 0.0	 0.0
 18	 1	 1	 -0.115	 0.0	 1.4148	 0.0
 19	 1	 1	 0.0	 1.225252741274224	 2.1222000000000003	 0.0
 20	 1	 1	 0.0	 2.450505482548448	 1.4148	 0.0
 21	 1	 1	 0.0	 3.675758223822672	 2.1222000000000003	 0.0
 22	 1	 1	 0.0	 4.901010965096896	 1.4148	 0.0
 23	 1	 1	 0.0	 6.12626370637112	 2.1222000000000003	 0.0
 24	 1	 1	 0.0	 7.351516447645344	 1.4148	 0.0
 25	 1	 1	 0.0	 8.576769188919569	 2.1222000000000003	 0.0
 26	 1	 1	 0.0	 9.802021930193792	 1.4148	 0.0
 27	 1	 1	 0.0	 11.027274671468016	 2.1222000000000003	 0.0
 28	 1	 1	 0.0	 12.25252741274224	 1.4148	 0.0
 29	 1	 1	 0.0	 13.477780154016463	 2.1222000000000003	 0.0
 30	 1	 1	 0.0	 14.703032895290686	 1.4148	 0.0
 31	 1	 1	 0.0	 15.928285636564912	 2.1222000000000003	 0.0
 32	 1	 1	 0.0	 17.153538377839137	 1.4148	 0.0
 33	 1	 1	 0.0	 18.378791119113362	 2.1222000000000003	 0.0
 34	 1	 1	 -0.115	 19.604043860387584	 1.4148	 0.0
 35	 1	 1	 -0.115	 0.0	 4.244400000000001	 0.0
 36	 1	 1	 0.0	 1.225252741274224	 3.537000000000001	 0.0
 37	 1	 1	 0.0	 2.450505482548448	 4.244400000000001	 0.0
 38	 1	 1	 0.0	 3.675758223822672	 3.537000000000001	 0.0
 39	 1	 1	 0.0	 4.901010965096896	 4.244400000000001	 0.0
 40	 1	 1	 0.0	 6.12626370637112	 3.537000000000001	 0.0
 41	 1	 1	 0.0	 7.351516447645344	 4.244400000000001	 0.0
 42	 1	 1	 0.0	 8.576769188919569	 3.537000000000001	 0.0
 43	 1	 1	 0.0	 9.802021930193792	 4.244400000000001	 0.0
 44	 1	 1	 0.0	 11.027274671468016	 3.537000000000001	 0.0
 45	 1	 1	 0.0	 12.25252741274224	 4.244400000000001	 0.0
 46	 1	 1	 0.0	 13.477780154016463	 3.537000000000001	 0.0
 47	 1	 1	 0.0	 14.703032895290686	 4.244400000000001	 0.0
 48	 1	 1	 0.0	 15.928285636564912	 3.537000000000001	 0.0
 49	 1	 1	 0.0	 17.153538377839137	 4.244400000000001	 0.0
 50	 1	 1	 0.0	 18.378791119113362	 3.537000000000001	 0.0
 51	 1	 1	 -0.115	 19.604043860387584	 4.244400000000001	 0.0
 52	 1	 1	 -0.115	 0.0	 5.6592	 0.0
 53	 1	 1	 0.0	 1.225252741274224	 6.3666	 0.0
 54	 1	 1	 0.0	 2.450505482548448	 5.6592	 0.0
 55	 1	 1	 0.0	 3.675758223822672	 6.3666	 0.0
 56	 1	 1	 0.0	 4.901010965096896	 5.6592	 0.0
 57	 1	 1	 0.0	 6.12626370637112	 6.3666	 0.0
 58	 1	 1	 0.0	 7.351516447645344	 5.6592	 0.0
 59	 1	 1	 0.0	 8.576769188919569	 6.3666	 0.0
 60	 1	 1	 0.0	 9.802021930193792	 5.6592	 0.0
 61	 1	 1	 0.0	 11.027274671468016	 6.3666	 0.0
 62	 1	 1	 0.0	 12.25252741274224	 5.6592	 0.0
 63	 1	 1	 0.0	 13.477780154016463	 6.3666	 0.0
 64	 1	 1	 0.0	 14.703032895290686	 5.6592	 0.0
 65	 1	 1	 0.0	 15.928285636564912	 6.3666	 0.0
 66	 1	 1	 0.0	 17.153538377839137	 5.6592	 0.0
 67	 1	 1	 0.0	 18.378791119113362	 6.3666	 0.0
 68	 1	 11	 0.15	 19.604043860387584	 5.6592	 0.0
 69	 1	 11	 0.15	 0.0	 8.488800000000001	 0.0
 70	 1	 1	 0.0	 1.225252741274224	 7.781400000000001	 0.0
 71	 1	 1	 0.0	 2.450505482548448	 8.488800000000001	 0.0
 72	 1	 1	 0.0	 3.675758223822672	 7.781400000000001	 0.0
 73	 1	 1	 0.0	 4.901010965096896	 8.488800000000001	 0.0
 74	 1	 1	 0.0	 6.12626370637112	 7.781400000000001	 0.0
 75	 1	 1	 0.0	 7.351516447645344	 8.488800000000001	 0.0
 76	 1	 1	 0.0	 8.576769188919569	 7.781400000000001	 0.0
 77	 1	 3	 0.265	 9.802021930193792	 8.488800000000001	 0.0
 78	 1	 1	 0.0	 11.027274671468016	 7.781400000000001	 0.0
 79	 1	 3	 0.265	 12.25252741274224	 8.488800000000001	 0.0
 80	 1	 3	 0.265	 13.477780154016463	 7.781400000000001	 0.0
 81	 1	 1	 0.0	 14.703032895290686	 8.488800000000001	 0.0
 82	 1	 3	 0.265	 15.928285636564912	 7.781400000000001	 0.0
 83	 1	 1	 0.0	 17.153538377839137	 8.488800000000001	 0.0
 84	 1	 3	 0.265	 18.378791119113362	 7.781400000000001	 0.0
 85	 1	 1	 -0.115	 19.604043860387584	 8.488800000000001	 0.0
 86	 1	 1	 -0.115	 0.0	 9.9036	 0.0
 87	 1	 1	 0.0	 1.225252741274224	 10.611	 0.0
 88	 1	 1	 0.0	 2.450505482548448	 9.9036	 0.0
 89	 1	 1	 0.0	 3.675758223822672	 10.611	 0.0
 90	 1	 1	 0.0	 4.901010965096896	 9.9036	 0.0
 91	 1	 1	 0.0	 6.12626370637112	 10.611	 0.0
 92	 1	 1	 0.0	 7.351516447645344	 9.9036	 0.0
 93	 1	 1	 0.0	 8.576769188919569	 10.611	 0.0
 94	 1	 3	 0.265	 9.802021930193792	 9.9036	 0.0
 95	 1	 1	 0.0	 11.027274671468016	 10.611	 0.0
 96	 1	 3	 0.265	 12.25252741274224	 9.9036	 0.0
 97	 1	 1	 0.0	 13.477780154016463	 10.611	 0.0
 98	 1	 3	 0.265	 14.703032895290686	 9.9036	 0.0
 99	 1	 1	 0.0	 15.928285636564912	 10.611	 0.0
 100	 1	 3	 0.265	 17.153538377839137	 9.9036	 0.0
 101	 1	 3	 0.265	 18.378791119113362	 10.611	 0.0
 102	 1	 1	 -0.115	 19.604043860387584	 9.9036	 0.0
 103	 1	 1	 -0.115	 0.0	 12.733200000000002	 0.0
 104	 1	 1	 0.0	 1.225252741274224	 12.025800000000002	 0.0
 105	 1	 1	 0.0	 2.450505482548448	 12.733200000000002	 0.0
 106	 1	 1	 0.0	 3.675758223822672	 12.025800000000002	 0.0
 107	 1	 1	 0.0	 4.901010965096896	 12.733200000000002	 0.0
 108	 1	 1	 0.0	 6.12626370637112	 12.025800000000002	 0.0
 109	 1	 1	 0.0	 7.351516447645344	 12.733200000000002	 0.0
 110	 1	 1	 0.0	 8.576769188919569	 12.025800000000002	 0.0
 111	 1	 1	 0.0	 9.802021930193792	 12.733200000000002	 0.0
 112	 1	 1	 0.0	 11.027274671468016	 12.025800000000002	 0.0
 113	 1	 1	 0.0	 12.25252741274224	 12.733200000000002	 0.0
 114	 1	 1	 0.0	 13.477780154016463	 12.025800000000002	 0.0
 115	 1	 1	 0.0	 14.703032895290686	 12.733200000000002	 0.0
 116	 1	 1	 0.0	 15.928285636564912	 12.025800000000002	 0.0
 117	 1	 3	 0.265	 17.153538377839137	 12.733200000000002	 0.0
 118	 1	 3	 0.265	 18.378791119113362	 12.025800000000002	 0.0
 119	 1	 1	 -0.115	 19.604043860387584	 12.733200000000002	 0.0
 120	 1	 11	 0.15	 0.0	 14.148	 0.0
 121	 1	 1	 0.0	 1.225252741274224	 14.8554	 0.0
 122	 1	 1	 0.0	 2.450505482548448	 14.148	 0.0
 123	 1	 1	 0.0	 3.675758223822672	 14.8554	 0.0
 124	 1	 1	 0.0	 4.901010965096896	 14.148	 0.0
 125	 1	 1	 0.0	 6.12626370637112	 14.8554	 0.0
 126	 1	 1	 0.0	 7.351516447645344	 14.148	 0.0
 127	 1	 1	 0.0	 8.576769188919569	 14.8554	 0.0
 128	 1	 1	 0.0	 9.802021930193792	 14.148	 0.0
 129	 1	 1	 0.0	 11.027274671468016	 14.8554	 0.0
 130	 1	 1	 0.0	 12.25252741274224	 14.148	 0.0
 131	 1	 3	 0.265	 13.477780154016463	 14.8554	 0.0
 132	 1	 3	 0.265	 14.703032895290686	 14.148	 0.0
 133	 1	 3	 0.265	 15.928285636564912	 14.8554	 0.0
 134	 1	 3	 0.265	 17.153538377839137	 14.148	 0.0
 135	 1	 3	 0.265	 18.378791119113362	 14.8554	 0.0
 136	 1	 1	 -0.115	 19.604043860387584	 14.148	 0.0
 137	 1	 1	 -0.115	 0.0	 16.977600000000002	 0.0
 138	 1	 1	 0.0	 1.225252741274224	 16.270200000000003	 0.0
 139	 1	 1	 0.0	 2.450505482548448	 16.977600000000002	 0.0
 140	 1	 1	 0.0	 3.675758223822672	 16.270200000000003	 0.0
 141	 1	 1	 0.0	 4.901010965096896	 16.977600000000002	 0.0
 142	 1	 1	 0.0	 6.12626370637112	 16.270200000000003	 0.0
 143	 1	 1	 0.0	 7.351516447645344	 16.977600000000002	 0.0
 144	 1	 3	 0.265	 8.576769188919569	 16.270200000000003	 0.0
 145	 1	 3	 0.265	 9.802021930193792	 16.977600000000002	 0.0
 146	 1	 1	 0.0	 11.027274671468016	 16.270200000000003	 0.0
 147	 1	 3	 0.265	 12.25252741274224	 16.977600000000002	 0.0
 148	 1	 3	 0.265	 13.477780154016463	 16.270200000000003	 0.0
 149	 1	 1	 0.0	 14.703032895290686	 16.977600000000002	 0.0
 150	 1	 1	 0.0	 15.928285636564912	 16.270200000000003	 0.0
 151	 1	 3	 0.265	 17.153538377839137	 16.977600000000002	 0.0
 152	 1	 1	 0.0	 18.378791119113362	 16.270200000000003	 0.0
 153	 1	 11	 0.15	 19.604043860387584	 16.977600000000002	 0.0
 154	 1	 1	 -0.115	 0.0	 18.392400000000002	 0.0
 155	 1	 1	 -0.115	 1.225252741274224	 19.099800000000002	 0.0
 156	 1	 1	 0.0	 2.450505482548448	 18.392400000000002	 0.0
 157	 1	 1	 -0.115	 3.675758223822672	 19.099800000000002	 0.0
 158	 1	 1	 0.0	 4.901010965096896	 18.392400000000002	 0.0
 159	 1	 11	 0.15	 6.12626370637112	 19.099800000000002	 0.0
 160	 1	 1	 0.0	 7.351516447645344	 18.392400000000002	 0.0
 161	 1	 1	 -0.115	 8.576769188919569	 19.099800000000002	 0.0
 162	 1	 1	 0.0	 9.802021930193792	 18.392400000000002	 0.0
 163	 1	 1	 -0.115	 11.027274671468016	 19.099800000000002	 0.0
 164	 1	 1	 0.0	 12.25252741274224	 18.392400000000002	 0.0
 165	 1	 11	 0.15	 13.477780154016463	 19.099800000000002	 0.0
 166	 1	 3	 0.265	 14.703032895290686	 18.392400000000002	 0.0
 167	 1	 11	 0.15	 15.928285636564912	 19.099800000000002	 0.0
 168	 1	 1	 0.0	 17.153538377839137	 18.392400000000002	 0.0
 169	 1	 1	 -0.115	 18.378791119113362	 19.099800000000002	 0.0
 170	 1	 11	 0.15	 19.604043860387584	 18.392400000000002	 0.0
 171	 1	 2	 0.115	 1.225252741274224	 -1.7844	 0.0
 172	 1	 2	 0.115	 3.675758223822672	 -1.7844	 0.0
 173	 1	 2	 0.115	 6.12626370637112	 -1.7844	 0.0
 174	 1	 7	 -0.585	 8.576769188919569	 -2.1074	 0.0
 175	 1	 2	 0.115	 11.027274671468016	 -1.7844	 0.0
 176	 1	 2	 0.115	 13.477780154016463	 -1.7844	 0.0
 177	 1	 7	 -0.585	 15.928285636564912	 -2.1074	 0.0
 178	 1	 2	 0.115	 18.378791119113362	 -1.7844	 0.0
 179	 1	 2	 0.115	 1.225252741274224	 20.1768	 0.0
 180	 1	 2	 0.115	 3.675758223822672	 20.1768	 0.0
 181	 1	 7	 -0.585	 6.12626370637112	 20.4998	 0.0
 182	 1	 2	 0.115	 8.576769188919569	 20.1768	 0.0
 183	 1	 2	 0.115	 11.027274671468016	 20.1768	 0.0
 184	 1	 7	 -0.585	 13.477780154016463	 20.4998	 0.0
 185	 1	 7	 -0.585	 15.928285636564912	 20.4998	 0.0
 186	 1	 2	 0.115	 18.378791119113362	 20.1768	 0.0
 187	 1	 2	 0.115	 -0.9327093598758405	 -0.5385	 0.0
 188	 1	 2	 0.115	 -0.9327093598758405	 1.9533	 0.0
 189	 1	 7	 -0.585	 20.8164794256858	 -0.7000000000000001	 0.0
 190	 1	 2	 0.115	 20.536753220263424	 1.9533	 0.0
 191	 1	 2	 0.115	 -0.9327093598758405	 3.7059000000000006	 0.0
 192	 1	 2	 0.115	 -0.9327093598758405	 6.1977	 0.0
 193	 1	 2	 0.115	 20.536753220263424	 3.7059000000000006	 0.0
 194	 1	 7	 -0.585	 20.8164794256858	 6.3592	 0.0
 195	 1	 7	 -0.585	 -1.2124355652982142	 7.788800000000001	 0.0
 196	 1	 2	 0.115	 -0.9327093598758405	 10.4421	 0.0
 197	 1	 2	 0.115	 20.536753220263424	 7.950300000000001	 0.0
 198	 1	 2	 0.115	 20.536753220263424	 10.4421	 0.0
 199	 1	 2	 0.115	 -0.9327093598758405	 12.194700000000001	 0.0
 200	 1	 7	 -0.585	 -1.2124355652982146	 14.847999999999999	 0.0
 201	 1	 2	 0.115	 20.536753220263424	 12.194700000000001	 0.0
 202	 1	 2	 0.115	 20.536753220263424	 14.686499999999999	 0.0
 203	 1	 2	 0.115	 -0.9327093598758405	 16.439100000000003	 0.0
 204	 1	 2	 0.115	 -0.9327093598758405	 18.9309	 0.0
 205	 1	 7	 -0.585	 20.8164794256858	 16.277600000000003	 0.0
 206	 1	 7	 -0.585	 20.8164794256858	 19.0924	 0.0
 207	 1	 5	 0.435	 8.576769188919569	 -2.8074000000000003	 -0.7
 208	 1	 5	 0.435	 15.928285636564912	 -2.8074000000000003	 0.7
 209	 1	 5	 0.435	 6.12626370637112	 21.1998	 -0.7
 210	 1	 5	 0.435	 13.477780154016463	 21.1998	 0.7
 211	 1	 5	 0.435	 15.928285636564912	 21.1998	 -0.7
 212	 1	 5	 0.435	 21.422697208334906	 -1.05	 -0.7
 213	 1	 5	 0.435	 21.422697208334906	 6.7092	 -0.7
 214	 1	 5	 0.435	 -1.8186533479473213	 7.438800000000001	 -0.7
 215	 1	 5	 0.435	 -1.818653347947322	 15.197999999999999	 0.7
 216	 1	 5	 0.435	 21.422697208334906	 15.927600000000004	 0.7
 217	 1	 5	 0.435	 21.422697208334906	 19.4424	 -0.7
 218	 1	 4	 -0.683	 13.477780154016463	 16.270200000000003	 1.4
 219	 1	 5	 0.418	 13.477780154016463	 16.270200000000003	 2.4
 220	 1	 4	 -0.683	 13.477780154016463	 14.8554	 -1.4
 221	 1	 5	 0.418	 13.477780154016463	 14.8554	 -2.4
 222	 1	 4	 -0.683	 12.25252741274224	 16.977600000000002	 -1.4
 223	 1	 5	 0.418	 12.25252741274224	 16.977600000000002	 -2.4
 224	 1	 4	 -0.683	 9.802021930193792	 16.977600000000002	 1.4
 225	 1	 5	 0.418	 9.802021930193792	 16.977600000000002	 2.4
 226	 1	 4	 -0.683	 14.703032895290686	 18.392400000000002	 -1.4
 227	 1	 5	 0.418	 14.703032895290686	 18.392400000000002	 -2.4
 228	 1	 4	 -0.683	 14.703032895290686	 14.148	 1.4
 229	 1	 5	 0.418	 14.703032895290686	 14.148	 2.4
 230	 1	 4	 -0.683	 15.928285636564912	 14.8554	 -1.4
 231	 1	 5	 0.418	 15.928285636564912	 14.8554	 -2.4
 232	 1	 4	 -0.683	 17.153538377839137	 14.148	 1.4
 233	 1	 5	 0.418	 17.153538377839137	 14.148	 2.4
 234	 1	 4	 -0.683	 18.378791119113362	 14.8554	 -1.4
 235	 1	 5	 0.418	 18.378791119113362	 14.8554	 -2.4
 236	 1	 4	 -0.683	 17.153538377839137	 16.977600000000002	 1.4
 237	 1	 5	 0.418	 17.153538377839137	 16.977600000000002	 2.4
 238	 1	 4	 -0.683	 17.153538377839137	 12.733200000000002	 -1.4
 239	 1	 5	 0.418	 17.153538377839137	 12.733200000000002	 -2.4
 240	 1	 4	 -0.683	 18.378791119113362	 12.025800000000002	 1.4
 241	 1	 5	 0.418	 18.378791119113362	 12.025800000000002	 2.4
 242	 1	 4	 -0.683	 18.378791119113362	 10.611	 -1.4
 243	 1	 5	 0.418	 18.378791119113362	 10.611	 -2.4
 244	 1	 4	 -0.683	 17.153538377839137	 9.9036	 1.4
 245	 1	 5	 0.418	 17.153538377839137	 9.9036	 2.4
 246	 1	 4	 -0.683	 18.378791119113362	 7.781400000000001	 -1.4
 247	 1	 5	 0.418	 18.378791119113362	 7.781400000000001	 -2.4
 248	 1	 4	 -0.683	 15.928285636564912	 7.781400000000001	 -1.4
 249	 1	 5	 0.418	 15.928285636564912	 7.781400000000001	 -2.4
 250	 1	 4	 -0.683	 14.703032895290686	 9.9036	 1.4
 251	 1	 5	 0.418	 14.703032895290686	 9.9036	 2.4
 252	 1	 4	 -0.683	 12.25252741274224	 8.488800000000001	 -1.4
 253	 1	 5	 0.418	 12.25252741274224	 8.488800000000001	 -2.4
 254	 1	 4	 -0.683	 12.25252741274224	 9.9036	 1.4
 255	 1	 5	 0.418	 12.25252741274224	 9.9036	 2.4
 256	 1	 4	 -0.683	 9.802021930193792	 8.488800000000001	 -1.4
 257	 1	 5	 0.418	 9.802021930193792	 8.488800000000001	 -2.4
 258	 1	 4	 -0.683	 13.477780154016463	 7.781400000000001	 1.4
 259	 1	 5	 0.418	 13.477780154016463	 7.781400000000001	 2.4
 260	 1	 4	 -0.683	 9.802021930193792	 9.9036	 1.4
 261	 1	 5	 0.418	 9.802021930193792	 9.9036	 2.4
 262	 1	 4	 -0.683	 8.576769188919569	 16.270200000000003	 -1.4
 263	 1	 5	 0.418	 8.576769188919569	 16.270200000000003	 -2.4
 
 Bonds 
 
1	 1	 1	 2
2	 1	 2	 3
3	 1	 3	 4
4	 1	 4	 5
5	 1	 5	 6
6	 1	 6	 7
7	 2	 7	 8
8	 2	 8	 9
9	 1	 9	 10
10	 1	 10	 11
11	 1	 11	 12
12	 1	 12	 13
13	 2	 13	 14
14	 2	 14	 15
15	 1	 15	 16
16	 2	 16	 17
17	 1	 18	 19
18	 1	 19	 20
19	 1	 20	 21
20	 1	 21	 22
21	 1	 22	 23
22	 1	 23	 24
23	 1	 24	 25
24	 1	 25	 26
25	 1	 26	 27
26	 1	 27	 28
27	 1	 28	 29
28	 1	 29	 30
29	 1	 30	 31
30	 1	 31	 32
31	 1	 32	 33
32	 1	 33	 34
33	 1	 35	 36
34	 1	 36	 37
35	 1	 37	 38
36	 1	 38	 39
37	 1	 39	 40
38	 1	 40	 41
39	 1	 41	 42
40	 1	 42	 43
41	 1	 43	 44
42	 1	 44	 45
43	 1	 45	 46
44	 1	 46	 47
45	 1	 47	 48
46	 1	 48	 49
47	 1	 49	 50
48	 1	 50	 51
49	 1	 52	 53
50	 1	 53	 54
51	 1	 54	 55
52	 1	 55	 56
53	 1	 56	 57
54	 1	 57	 58
55	 1	 58	 59
56	 1	 59	 60
57	 1	 60	 61
58	 1	 61	 62
59	 1	 62	 63
60	 1	 63	 64
61	 1	 64	 65
62	 1	 65	 66
63	 1	 66	 67
64	 2	 67	 68
65	 2	 69	 70
66	 1	 70	 71
67	 1	 71	 72
68	 1	 72	 73
69	 1	 73	 74
70	 1	 74	 75
71	 1	 75	 76
72	 3	 76	 77
73	 3	 77	 78
74	 3	 78	 79
75	 4	 79	 80
76	 3	 80	 81
77	 3	 81	 82
78	 3	 82	 83
79	 3	 83	 84
80	 3	 84	 85
81	 1	 86	 87
82	 1	 87	 88
83	 1	 88	 89
84	 1	 89	 90
85	 1	 90	 91
86	 1	 91	 92
87	 1	 92	 93
88	 3	 93	 94
89	 3	 94	 95
90	 3	 95	 96
91	 3	 96	 97
92	 3	 97	 98
93	 3	 98	 99
94	 3	 99	 100
95	 4	 100	 101
96	 3	 101	 102
97	 1	 103	 104
98	 1	 104	 105
99	 1	 105	 106
100	 1	 106	 107
101	 1	 107	 108
102	 1	 108	 109
103	 1	 109	 110
104	 1	 110	 111
105	 1	 111	 112
106	 1	 112	 113
107	 1	 113	 114
108	 1	 114	 115
109	 1	 115	 116
110	 3	 116	 117
111	 4	 117	 118
112	 3	 118	 119
113	 2	 120	 121
114	 1	 121	 122
115	 1	 122	 123
116	 1	 123	 124
117	 1	 124	 125
118	 1	 125	 126
119	 1	 126	 127
120	 1	 127	 128
121	 1	 128	 129
122	 1	 129	 130
123	 3	 130	 131
124	 4	 131	 132
125	 4	 132	 133
126	 4	 133	 134
127	 4	 134	 135
128	 3	 135	 136
129	 1	 137	 138
130	 1	 138	 139
131	 1	 139	 140
132	 1	 140	 141
133	 1	 141	 142
134	 1	 142	 143
135	 3	 143	 144
136	 4	 144	 145
137	 3	 145	 146
138	 3	 146	 147
139	 4	 147	 148
140	 3	 148	 149
141	 1	 149	 150
142	 3	 150	 151
143	 3	 151	 152
144	 2	 152	 153
145	 1	 154	 155
146	 1	 155	 156
147	 1	 156	 157
148	 1	 157	 158
149	 2	 158	 159
150	 2	 159	 160
151	 1	 160	 161
152	 1	 161	 162
153	 1	 162	 163
154	 1	 163	 164
155	 2	 164	 165
156	 5	 165	 166
157	 5	 166	 167
158	 2	 167	 168
159	 1	 168	 169
160	 2	 169	 170
161	 1	 1	 18
162	 1	 3	 20
163	 1	 5	 22
164	 1	 7	 24
165	 1	 9	 26
166	 1	 11	 28
167	 1	 13	 30
168	 1	 15	 32
169	 2	 17	 34
170	 1	 19	 36
171	 1	 21	 38
172	 1	 23	 40
173	 1	 25	 42
174	 1	 27	 44
175	 1	 29	 46
176	 1	 31	 48
177	 1	 33	 50
178	 1	 35	 52
179	 1	 37	 54
180	 1	 39	 56
181	 1	 41	 58
182	 1	 43	 60
183	 1	 45	 62
184	 1	 47	 64
185	 1	 49	 66
186	 2	 51	 68
187	 1	 53	 70
188	 1	 55	 72
189	 1	 57	 74
190	 1	 59	 76
191	 1	 61	 78
192	 3	 63	 80
193	 3	 65	 82
194	 3	 67	 84
195	 2	 69	 86
196	 1	 71	 88
197	 1	 73	 90
198	 1	 75	 92
199	 4	 77	 94
200	 4	 79	 96
201	 3	 81	 98
202	 3	 83	 100
203	 1	 85	 102
204	 1	 87	 104
205	 1	 89	 106
206	 1	 91	 108
207	 1	 93	 110
208	 1	 95	 112
209	 1	 97	 114
210	 1	 99	 116
211	 4	 101	 118
212	 2	 103	 120
213	 1	 105	 122
214	 1	 107	 124
215	 1	 109	 126
216	 1	 111	 128
217	 1	 113	 130
218	 3	 115	 132
219	 4	 117	 134
220	 1	 119	 136
221	 1	 121	 138
222	 1	 123	 140
223	 1	 125	 142
224	 3	 127	 144
225	 1	 129	 146
226	 4	 131	 148
227	 3	 133	 150
228	 3	 135	 152
229	 1	 137	 154
230	 1	 139	 156
231	 1	 141	 158
232	 1	 143	 160
233	 3	 145	 162
234	 3	 147	 164
235	 3	 149	 166
236	 3	 151	 168
237	 6	 153	 170
238	 7	 2	 171
239	 7	 4	 172
240	 7	 6	 173
241	 8	 8	 174
242	 7	 10	 175
243	 7	 12	 176
244	 8	 14	 177
245	 7	 16	 178
246	 7	 155	 179
247	 7	 157	 180
248	 8	 159	 181
249	 7	 161	 182
250	 7	 163	 183
251	 8	 165	 184
252	 8	 167	 185
253	 7	 169	 186
254	 7	 1	 187
255	 7	 18	 188
256	 8	 17	 189
257	 7	 34	 190
258	 7	 35	 191
259	 7	 52	 192
260	 7	 51	 193
261	 8	 68	 194
262	 8	 69	 195
263	 7	 86	 196
264	 7	 85	 197
265	 7	 102	 198
266	 7	 103	 199
267	 8	 120	 200
268	 7	 119	 201
269	 7	 136	 202
270	 7	 137	 203
271	 7	 154	 204
272	 8	 153	 205
273	 8	 170	 206
274	 9	 174	 207
275	 9	 177	 208
276	 9	 181	 209
277	 9	 184	 210
278	 9	 185	 211
279	 9	 189	 212
280	 9	 194	 213
281	 9	 195	 214
282	 9	 200	 215
283	 9	 205	 216
284	 9	 206	 217
285	 10	 148	 218
286	 11	 218	 219
287	 10	 131	 220
288	 11	 220	 221
289	 10	 147	 222
290	 11	 222	 223
291	 10	 145	 224
292	 11	 224	 225
293	 10	 166	 226
294	 11	 226	 227
295	 10	 132	 228
296	 11	 228	 229
297	 10	 133	 230
298	 11	 230	 231
299	 10	 134	 232
300	 11	 232	 233
301	 10	 135	 234
302	 11	 234	 235
303	 10	 151	 236
304	 11	 236	 237
305	 10	 117	 238
306	 11	 238	 239
307	 10	 118	 240
308	 11	 240	 241
309	 10	 101	 242
310	 11	 242	 243
311	 10	 100	 244
312	 11	 244	 245
313	 10	 84	 246
314	 11	 246	 247
315	 10	 82	 248
316	 11	 248	 249
317	 10	 98	 250
318	 11	 250	 251
319	 10	 79	 252
320	 11	 252	 253
321	 10	 96	 254
322	 11	 254	 255
323	 10	 77	 256
324	 11	 256	 257
325	 10	 80	 258
326	 11	 258	 259
327	 10	 94	 260
328	 11	 260	 261
329	 10	 144	 262
330	 11	 262	 263

 Angles 
 
1	 1	 2	 1	 187
2	 2	 2	 1	 18
3	 1	 187	 1	 18
4	 2	 1	 2	 3
5	 1	 1	 2	 171
6	 1	 3	 2	 171
7	 2	 20	 3	 2
8	 2	 20	 3	 4
9	 2	 2	 3	 4
10	 1	 3	 4	 172
11	 2	 3	 4	 5
12	 1	 172	 4	 5
13	 2	 4	 5	 6
14	 2	 4	 5	 22
15	 2	 6	 5	 22
16	 1	 173	 6	 5
17	 1	 173	 6	 7
18	 2	 5	 6	 7
19	 2	 24	 7	 6
20	 3	 24	 7	 8
21	 3	 6	 7	 8
22	 4	 9	 8	 174
23	 5	 9	 8	 7
24	 4	 174	 8	 7
25	 2	 10	 9	 26
26	 3	 10	 9	 8
27	 3	 26	 9	 8
28	 2	 9	 10	 11
29	 1	 9	 10	 175
30	 1	 11	 10	 175
31	 2	 28	 11	 10
32	 2	 28	 11	 12
33	 2	 10	 11	 12
34	 2	 11	 12	 13
35	 1	 11	 12	 176
36	 1	 13	 12	 176
37	 3	 12	 13	 14
38	 2	 12	 13	 30
39	 3	 14	 13	 30
40	 4	 177	 14	 13
41	 4	 177	 14	 15
42	 5	 13	 14	 15
43	 3	 32	 15	 14
44	 2	 32	 15	 16
45	 3	 14	 15	 16
46	 6	 17	 16	 178
47	 3	 17	 16	 15
48	 1	 178	 16	 15
49	 4	 34	 17	 189
50	 5	 34	 17	 16
51	 4	 189	 17	 16
52	 2	 1	 18	 19
53	 1	 1	 18	 188
54	 1	 19	 18	 188
55	 2	 18	 19	 20
56	 2	 18	 19	 36
57	 2	 20	 19	 36
58	 2	 19	 20	 21
59	 2	 19	 20	 3
60	 2	 21	 20	 3
61	 2	 20	 21	 22
62	 2	 20	 21	 38
63	 2	 22	 21	 38
64	 2	 5	 22	 21
65	 2	 5	 22	 23
66	 2	 21	 22	 23
67	 2	 40	 23	 22
68	 2	 40	 23	 24
69	 2	 22	 23	 24
70	 2	 25	 24	 7
71	 2	 25	 24	 23
72	 2	 7	 24	 23
73	 2	 26	 25	 42
74	 2	 26	 25	 24
75	 2	 42	 25	 24
76	 2	 25	 26	 9
77	 2	 25	 26	 27
78	 2	 9	 26	 27
79	 2	 26	 27	 28
80	 2	 26	 27	 44
81	 2	 28	 27	 44
82	 2	 27	 28	 29
83	 2	 27	 28	 11
84	 2	 29	 28	 11
85	 2	 28	 29	 30
86	 2	 28	 29	 46
87	 2	 30	 29	 46
88	 2	 13	 30	 29
89	 2	 13	 30	 31
90	 2	 29	 30	 31
91	 2	 48	 31	 30
92	 2	 48	 31	 32
93	 2	 30	 31	 32
94	 2	 33	 32	 15
95	 2	 33	 32	 31
96	 2	 15	 32	 31
97	 2	 34	 33	 50
98	 2	 34	 33	 32
99	 2	 50	 33	 32
100	 3	 33	 34	 17
101	 1	 33	 34	 190
102	 6	 17	 34	 190
103	 2	 52	 35	 36
104	 1	 52	 35	 191
105	 1	 36	 35	 191
106	 2	 35	 36	 37
107	 2	 35	 36	 19
108	 2	 37	 36	 19
109	 2	 36	 37	 38
110	 2	 36	 37	 54
111	 2	 38	 37	 54
112	 2	 21	 38	 37
113	 2	 21	 38	 39
114	 2	 37	 38	 39
115	 2	 56	 39	 38
116	 2	 56	 39	 40
117	 2	 38	 39	 40
118	 2	 41	 40	 23
119	 2	 41	 40	 39
120	 2	 23	 40	 39
121	 2	 42	 41	 58
122	 2	 42	 41	 40
123	 2	 58	 41	 40
124	 2	 41	 42	 25
125	 2	 41	 42	 43
126	 2	 25	 42	 43
127	 2	 42	 43	 44
128	 2	 42	 43	 60
129	 2	 44	 43	 60
130	 2	 43	 44	 45
131	 2	 43	 44	 27
132	 2	 45	 44	 27
133	 2	 44	 45	 46
134	 2	 44	 45	 62
135	 2	 46	 45	 62
136	 2	 29	 46	 45
137	 2	 29	 46	 47
138	 2	 45	 46	 47
139	 2	 64	 47	 46
140	 2	 64	 47	 48
141	 2	 46	 47	 48
142	 2	 49	 48	 31
143	 2	 49	 48	 47
144	 2	 31	 48	 47
145	 2	 50	 49	 66
146	 2	 50	 49	 48
147	 2	 66	 49	 48
148	 2	 49	 50	 33
149	 2	 49	 50	 51
150	 2	 33	 50	 51
151	 1	 193	 51	 50
152	 6	 193	 51	 68
153	 3	 50	 51	 68
154	 2	 35	 52	 53
155	 1	 35	 52	 192
156	 1	 53	 52	 192
157	 2	 52	 53	 54
158	 2	 52	 53	 70
159	 2	 54	 53	 70
160	 2	 37	 54	 53
161	 2	 37	 54	 55
162	 2	 53	 54	 55
163	 2	 72	 55	 54
164	 2	 72	 55	 56
165	 2	 54	 55	 56
166	 2	 57	 56	 39
167	 2	 57	 56	 55
168	 2	 39	 56	 55
169	 2	 58	 57	 74
170	 2	 58	 57	 56
171	 2	 74	 57	 56
172	 2	 57	 58	 41
173	 2	 57	 58	 59
174	 2	 41	 58	 59
175	 2	 58	 59	 76
176	 2	 58	 59	 60
177	 2	 76	 59	 60
178	 2	 59	 60	 61
179	 2	 59	 60	 43
180	 2	 61	 60	 43
181	 2	 60	 61	 62
182	 2	 60	 61	 78
183	 2	 62	 61	 78
184	 2	 45	 62	 61
185	 2	 45	 62	 63
186	 2	 61	 62	 63
187	 7	 80	 63	 62
188	 7	 80	 63	 64
189	 2	 62	 63	 64
190	 2	 65	 64	 47
191	 2	 65	 64	 63
192	 2	 47	 64	 63
193	 7	 66	 65	 82
194	 2	 66	 65	 64
195	 7	 82	 65	 64
196	 2	 65	 66	 49
197	 2	 65	 66	 67
198	 2	 49	 66	 67
199	 7	 66	 67	 84
200	 3	 66	 67	 68
201	 8	 84	 67	 68
202	 4	 194	 68	 67
203	 4	 194	 68	 51
204	 5	 67	 68	 51
205	 4	 195	 69	 70
206	 4	 195	 69	 86
207	 5	 70	 69	 86
208	 3	 53	 70	 69
209	 2	 53	 70	 71
210	 3	 69	 70	 71
211	 2	 88	 71	 70
212	 2	 88	 71	 72
213	 2	 70	 71	 72
214	 2	 73	 72	 55
215	 2	 73	 72	 71
216	 2	 55	 72	 71
217	 2	 74	 73	 90
218	 2	 74	 73	 72
219	 2	 90	 73	 72
220	 2	 73	 74	 57
221	 2	 73	 74	 75
222	 2	 57	 74	 75
223	 2	 74	 75	 92
224	 2	 74	 75	 76
225	 2	 92	 75	 76
226	 7	 75	 76	 77
227	 2	 75	 76	 59
228	 7	 77	 76	 59
229	 9	 76	 77	 256
230	 10	 76	 77	 78
231	 11	 76	 77	 94
232	 9	 256	 77	 78
233	 12	 256	 77	 94
234	 11	 78	 77	 94
235	 7	 61	 78	 77
236	 7	 61	 78	 79
237	 13	 77	 78	 79
238	 12	 96	 79	 252
239	 11	 96	 79	 78
240	 14	 96	 79	 80
241	 9	 252	 79	 78
242	 12	 252	 79	 80
243	 11	 78	 79	 80
244	 9	 81	 80	 258
245	 10	 81	 80	 63
246	 11	 81	 80	 79
247	 9	 258	 80	 63
248	 12	 258	 80	 79
249	 11	 63	 80	 79
250	 13	 82	 81	 98
251	 13	 82	 81	 80
252	 13	 98	 81	 80
253	 10	 81	 82	 65
254	 10	 81	 82	 83
255	 9	 81	 82	 248
256	 10	 65	 82	 83
257	 9	 65	 82	 248
258	 9	 83	 82	 248
259	 13	 100	 83	 82
260	 13	 100	 83	 84
261	 13	 82	 83	 84
262	 10	 83	 84	 85
263	 10	 83	 84	 67
264	 9	 83	 84	 246
265	 10	 85	 84	 67
266	 9	 85	 84	 246
267	 9	 67	 84	 246
268	 15	 84	 85	 197
269	 7	 84	 85	 102
270	 1	 197	 85	 102
271	 6	 196	 86	 69
272	 1	 196	 86	 87
273	 3	 69	 86	 87
274	 2	 104	 87	 86
275	 2	 104	 87	 88
276	 2	 86	 87	 88
277	 2	 89	 88	 71
278	 2	 89	 88	 87
279	 2	 71	 88	 87
280	 2	 90	 89	 106
281	 2	 90	 89	 88
282	 2	 106	 89	 88
283	 2	 89	 90	 73
284	 2	 89	 90	 91
285	 2	 73	 90	 91
286	 2	 108	 91	 90
287	 2	 108	 91	 92
288	 2	 90	 91	 92
289	 2	 91	 92	 93
290	 2	 91	 92	 75
291	 2	 93	 92	 75
292	 7	 92	 93	 94
293	 2	 92	 93	 110
294	 7	 94	 93	 110
295	 12	 77	 94	 260
296	 11	 77	 94	 93
297	 11	 77	 94	 95
298	 9	 260	 94	 93
299	 9	 260	 94	 95
300	 10	 93	 94	 95
301	 7	 112	 95	 94
302	 7	 112	 95	 96
303	 13	 94	 95	 96
304	 11	 97	 96	 79
305	 10	 97	 96	 95
306	 9	 97	 96	 254
307	 11	 79	 96	 95
308	 12	 79	 96	 254
309	 9	 95	 96	 254
310	 7	 98	 97	 114
311	 13	 98	 97	 96
312	 7	 114	 97	 96
313	 10	 97	 98	 81
314	 10	 97	 98	 99
315	 9	 97	 98	 250
316	 10	 81	 98	 99
317	 9	 81	 98	 250
318	 9	 99	 98	 250
319	 7	 116	 99	 98
320	 7	 116	 99	 100
321	 13	 98	 99	 100
322	 9	 99	 100	 244
323	 11	 99	 100	 101
324	 10	 99	 100	 83
325	 12	 244	 100	 101
326	 9	 244	 100	 83
327	 11	 101	 100	 83
328	 12	 242	 101	 100
329	 9	 242	 101	 102
330	 12	 242	 101	 118
331	 11	 100	 101	 102
332	 14	 100	 101	 118
333	 11	 102	 101	 118
334	 7	 85	 102	 101
335	 1	 85	 102	 198
336	 15	 101	 102	 198
337	 6	 120	 103	 199
338	 3	 120	 103	 104
339	 1	 199	 103	 104
340	 2	 105	 104	 87
341	 2	 105	 104	 103
342	 2	 87	 104	 103
343	 2	 106	 105	 122
344	 2	 106	 105	 104
345	 2	 122	 105	 104
346	 2	 105	 106	 89
347	 2	 105	 106	 107
348	 2	 89	 106	 107
349	 2	 124	 107	 106
350	 2	 124	 107	 108
351	 2	 106	 107	 108
352	 2	 107	 108	 109
353	 2	 107	 108	 91
354	 2	 109	 108	 91
355	 2	 108	 109	 110
356	 2	 108	 109	 126
357	 2	 110	 109	 126
358	 2	 93	 110	 109
359	 2	 93	 110	 111
360	 2	 109	 110	 111
361	 2	 128	 111	 110
362	 2	 128	 111	 112
363	 2	 110	 111	 112
364	 2	 113	 112	 95
365	 2	 113	 112	 111
366	 2	 95	 112	 111
367	 2	 130	 113	 114
368	 2	 130	 113	 112
369	 2	 114	 113	 112
370	 2	 113	 114	 97
371	 2	 113	 114	 115
372	 2	 97	 114	 115
373	 2	 114	 115	 116
374	 7	 114	 115	 132
375	 7	 116	 115	 132
376	 7	 115	 116	 117
377	 2	 115	 116	 99
378	 7	 117	 116	 99
379	 9	 238	 117	 116
380	 12	 238	 117	 118
381	 12	 238	 117	 134
382	 11	 116	 117	 118
383	 11	 116	 117	 134
384	 14	 118	 117	 134
385	 14	 101	 118	 117
386	 11	 101	 118	 119
387	 12	 101	 118	 240
388	 11	 117	 118	 119
389	 12	 117	 118	 240
390	 9	 119	 118	 240
391	 15	 201	 119	 118
392	 1	 201	 119	 136
393	 7	 118	 119	 136
394	 5	 121	 120	 103
395	 4	 121	 120	 200
396	 4	 103	 120	 200
397	 2	 138	 121	 122
398	 3	 138	 121	 120
399	 3	 122	 121	 120
400	 2	 121	 122	 105
401	 2	 121	 122	 123
402	 2	 105	 122	 123