# GO
239 atoms 
315 bonds 
581 angles 
1086 dihedrals 
190 impropers 

354 atom types 
6 bond types 
11 angle types 
21 dihedral types 
7 improper types 

0.0	124.0	 xlo xhi 
0.0	124.0	 ylo yhi 
0.0	3.4827	 zlo zhi 


 Masses 
 
1	12.011
2	1.008
3	12.011
4	15.999
5	1.008
6	15.999
7	15.999
8	12.011
9	15.999
10	15.999
11	12.011
12	12.011
13	15.999
354	40.08
349	22.99

 Pair Coeffs 
 
1	0.07	3.55
2	0.03	2.42
3	0.066	3.5
4	0.17	3.12
5	0.0	0.0
6	0.14	2.9
7	0.17	3.07
8	0.105	3.75
9	0.21	2.96
10	0.17	3.0
11	0.07	3.55
12	0.105	3.75
13	0.21	2.96
354	0.449657	2.412031
349	0.0005	4.07

 Bond Coeffs 
 
1	469.0	1.4
2	469.0	1.4
3	469.0	1.4
4	450.0	1.364
5	367.0	1.08
6	553.0	0.945

 Angle Coeffs 
 
1	70.0	120.0
2	63.0	120.0
3	63.0	120.0
4	70.0	120.0
5	63.0	120.0
6	63.0	120.0
7	63.0	120.0
8	63.0	120.0
9	35.0	120.0
10	35.0	120.0
11	35.0	113.0

 Dihedral Coeffs 
 
1	0.0	7.25	0.0	0.0
2	0.0	7.25	0.0	0.0
3	0.0	7.25	0.0	0.0
4	0.0	7.25	0.0	0.0
5	0.0	7.25	0.0	0.0
6	0.0	7.25	0.0	0.0
7	0.0	7.25	0.0	0.0
8	0.0	7.25	0.0	0.0
9	0.0	7.25	0.0	0.0
10	0.0	7.25	0.0	0.0
11	0.0	7.25	0.0	0.0
12	0.0	7.25	0.0	0.0
13	0.0	7.25	0.0	0.0
14	0.0	7.25	0.0	0.0
15	0.0	7.25	0.0	0.0
16	0.0	7.25	0.0	0.0
17	0.0	7.25	0.0	0.0
18	0.0	7.25	0.0	0.0
19	0.0	7.25	0.0	0.0
20	0.0	1.682	0.0	0.0
21	0.0	1.682	0.0	0.0

 Improper Coeffs 
 
1	5.0	180.0
2	5.0	180.0
3	5.0	180.0
4	5.0	180.0
5	5.0	180.0
6	5.0	180.0
7	5.0	180.0

 Atoms 
 
1	 1	 11	 0.15	 0.0	 0.0	 0.0
 2	 1	 11	 0.15	 1.225252741274224	 -0.7074	 0.0
 3	 1	 1	 0.0	 2.450505482548448	 0.0	 0.0
 4	 1	 11	 0.15	 3.675758223822672	 -0.7074	 0.0
 5	 1	 1	 0.0	 4.901010965096896	 0.0	 0.0
 6	 1	 1	 -0.115	 6.12626370637112	 -0.7074	 0.0
 7	 1	 1	 0.0	 7.351516447645344	 0.0	 0.0
 8	 1	 1	 -0.115	 8.576769188919569	 -0.7074	 0.0
 9	 1	 1	 0.0	 9.802021930193792	 0.0	 0.0
 10	 1	 1	 -0.115	 11.027274671468016	 -0.7074	 0.0
 11	 1	 1	 0.0	 12.25252741274224	 0.0	 0.0
 12	 1	 1	 -0.115	 13.477780154016463	 -0.7074	 0.0
 13	 1	 1	 0.0	 14.703032895290686	 0.0	 0.0
 14	 1	 1	 -0.115	 15.928285636564912	 -0.7074	 0.0
 15	 1	 1	 0.0	 17.153538377839137	 0.0	 0.0
 16	 1	 11	 0.15	 18.378791119113362	 -0.7074	 0.0
 17	 1	 1	 0.0	 19.604043860387584	 0.0	 0.0
 18	 1	 1	 -0.115	 20.82929660166181	 -0.7074	 0.0
 19	 1	 1	 -0.115	 22.05454934293603	 0.0	 0.0
 20	 1	 11	 0.15	 0.0	 1.4148	 0.0
 21	 1	 1	 0.0	 1.225252741274224	 2.1222000000000003	 0.0
 22	 1	 1	 0.0	 2.450505482548448	 1.4148	 0.0
 23	 1	 1	 0.0	 3.675758223822672	 2.1222000000000003	 0.0
 24	 1	 1	 0.0	 4.901010965096896	 1.4148	 0.0
 25	 1	 1	 0.0	 6.12626370637112	 2.1222000000000003	 0.0
 26	 1	 1	 0.0	 7.351516447645344	 1.4148	 0.0
 27	 1	 1	 0.0	 8.576769188919569	 2.1222000000000003	 0.0
 28	 1	 1	 0.0	 9.802021930193792	 1.4148	 0.0
 29	 1	 1	 0.0	 11.027274671468016	 2.1222000000000003	 0.0
 30	 1	 1	 0.0	 12.25252741274224	 1.4148	 0.0
 31	 1	 1	 0.0	 13.477780154016463	 2.1222000000000003	 0.0
 32	 1	 1	 0.0	 14.703032895290686	 1.4148	 0.0
 33	 1	 1	 0.0	 15.928285636564912	 2.1222000000000003	 0.0
 34	 1	 1	 0.0	 17.153538377839137	 1.4148	 0.0
 35	 1	 1	 0.0	 18.378791119113362	 2.1222000000000003	 0.0
 36	 1	 1	 0.0	 19.604043860387584	 1.4148	 0.0
 37	 1	 1	 0.0	 20.82929660166181	 2.1222000000000003	 0.0
 38	 1	 1	 -0.115	 22.05454934293603	 1.4148	 0.0
 39	 1	 1	 -0.115	 0.0	 4.244400000000001	 0.0
 40	 1	 1	 0.0	 1.225252741274224	 3.537000000000001	 0.0
 41	 1	 1	 0.0	 2.450505482548448	 4.244400000000001	 0.0
 42	 1	 1	 0.0	 3.675758223822672	 3.537000000000001	 0.0
 43	 1	 1	 0.0	 4.901010965096896	 4.244400000000001	 0.0
 44	 1	 1	 0.0	 6.12626370637112	 3.537000000000001	 0.0
 45	 1	 1	 0.0	 7.351516447645344	 4.244400000000001	 0.0
 46	 1	 1	 0.0	 8.576769188919569	 3.537000000000001	 0.0
 47	 1	 1	 0.0	 9.802021930193792	 4.244400000000001	 0.0
 48	 1	 1	 0.0	 11.027274671468016	 3.537000000000001	 0.0
 49	 1	 1	 0.0	 12.25252741274224	 4.244400000000001	 0.0
 50	 1	 1	 0.0	 13.477780154016463	 3.537000000000001	 0.0
 51	 1	 1	 0.0	 14.703032895290686	 4.244400000000001	 0.0
 52	 1	 1	 0.0	 15.928285636564912	 3.537000000000001	 0.0
 53	 1	 1	 0.0	 17.153538377839137	 4.244400000000001	 0.0
 54	 1	 1	 0.0	 18.378791119113362	 3.537000000000001	 0.0
 55	 1	 1	 0.0	 19.604043860387584	 4.244400000000001	 0.0
 56	 1	 1	 0.0	 20.82929660166181	 3.537000000000001	 0.0
 57	 1	 1	 -0.115	 22.05454934293603	 4.244400000000001	 0.0
 58	 1	 11	 0.15	 0.0	 5.6592	 0.0
 59	 1	 1	 0.0	 1.225252741274224	 6.3666	 0.0
 60	 1	 1	 0.0	 2.450505482548448	 5.6592	 0.0
 61	 1	 1	 0.0	 3.675758223822672	 6.3666	 0.0
 62	 1	 1	 0.0	 4.901010965096896	 5.6592	 0.0
 63	 1	 1	 0.0	 6.12626370637112	 6.3666	 0.0
 64	 1	 1	 0.0	 7.351516447645344	 5.6592	 0.0
 65	 1	 1	 0.0	 8.576769188919569	 6.3666	 0.0
 66	 1	 1	 0.0	 9.802021930193792	 5.6592	 0.0
 67	 1	 1	 0.0	 11.027274671468016	 6.3666	 0.0
 68	 1	 1	 0.0	 12.25252741274224	 5.6592	 0.0
 69	 1	 1	 0.0	 13.477780154016463	 6.3666	 0.0
 70	 1	 1	 0.0	 14.703032895290686	 5.6592	 0.0
 71	 1	 1	 0.0	 15.928285636564912	 6.3666	 0.0
 72	 1	 1	 0.0	 17.153538377839137	 5.6592	 0.0
 73	 1	 1	 0.0	 18.378791119113362	 6.3666	 0.0
 74	 1	 1	 0.0	 19.604043860387584	 5.6592	 0.0
 75	 1	 1	 0.0	 20.82929660166181	 6.3666	 0.0
 76	 1	 11	 0.15	 22.05454934293603	 5.6592	 0.0
 77	 1	 1	 -0.115	 0.0	 8.488800000000001	 0.0
 78	 1	 1	 0.0	 1.225252741274224	 7.781400000000001	 0.0
 79	 1	 1	 0.0	 2.450505482548448	 8.488800000000001	 0.0
 80	 1	 1	 0.0	 3.675758223822672	 7.781400000000001	 0.0
 81	 1	 1	 0.0	 4.901010965096896	 8.488800000000001	 0.0
 82	 1	 1	 0.0	 6.12626370637112	 7.781400000000001	 0.0
 83	 1	 1	 0.0	 7.351516447645344	 8.488800000000001	 0.0
 84	 1	 1	 0.0	 8.576769188919569	 7.781400000000001	 0.0
 85	 1	 1	 0.0	 9.802021930193792	 8.488800000000001	 0.0
 86	 1	 1	 0.0	 11.027274671468016	 7.781400000000001	 0.0
 87	 1	 1	 0.0	 12.25252741274224	 8.488800000000001	 0.0
 88	 1	 1	 0.0	 13.477780154016463	 7.781400000000001	 0.0
 89	 1	 1	 0.0	 14.703032895290686	 8.488800000000001	 0.0
 90	 1	 1	 0.0	 15.928285636564912	 7.781400000000001	 0.0
 91	 1	 1	 0.0	 17.153538377839137	 8.488800000000001	 0.0
 92	 1	 1	 0.0	 18.378791119113362	 7.781400000000001	 0.0
 93	 1	 1	 0.0	 19.604043860387584	 8.488800000000001	 0.0
 94	 1	 1	 0.0	 20.82929660166181	 7.781400000000001	 0.0
 95	 1	 11	 0.15	 22.05454934293603	 8.488800000000001	 0.0
 96	 1	 1	 -0.115	 0.0	 9.9036	 0.0
 97	 1	 1	 0.0	 1.225252741274224	 10.611	 0.0
 98	 1	 1	 0.0	 2.450505482548448	 9.9036	 0.0
 99	 1	 1	 0.0	 3.675758223822672	 10.611	 0.0
 100	 1	 1	 0.0	 4.901010965096896	 9.9036	 0.0
 101	 1	 1	 0.0	 6.12626370637112	 10.611	 0.0
 102	 1	 1	 0.0	 7.351516447645344	 9.9036	 0.0
 103	 1	 1	 0.0	 8.576769188919569	 10.611	 0.0
 104	 1	 1	 0.0	 9.802021930193792	 9.9036	 0.0
 105	 1	 1	 0.0	 11.027274671468016	 10.611	 0.0
 106	 1	 1	 0.0	 12.25252741274224	 9.9036	 0.0
 107	 1	 1	 0.0	 13.477780154016463	 10.611	 0.0
 108	 1	 1	 0.0	 14.703032895290686	 9.9036	 0.0
 109	 1	 1	 0.0	 15.928285636564912	 10.611	 0.0
 110	 1	 1	 0.0	 17.153538377839137	 9.9036	 0.0
 111	 1	 1	 0.0	 18.378791119113362	 10.611	 0.0
 112	 1	 1	 0.0	 19.604043860387584	 9.9036	 0.0
 113	 1	 1	 0.0	 20.82929660166181	 10.611	 0.0
 114	 1	 11	 0.15	 22.05454934293603	 9.9036	 0.0
 115	 1	 1	 -0.115	 0.0	 12.733200000000002	 0.0
 116	 1	 1	 0.0	 1.225252741274224	 12.025800000000002	 0.0
 117	 1	 1	 0.0	 2.450505482548448	 12.733200000000002	 0.0
 118	 1	 1	 0.0	 3.675758223822672	 12.025800000000002	 0.0
 119	 1	 1	 0.0	 4.901010965096896	 12.733200000000002	 0.0
 120	 1	 1	 0.0	 6.12626370637112	 12.025800000000002	 0.0
 121	 1	 1	 0.0	 7.351516447645344	 12.733200000000002	 0.0
 122	 1	 1	 0.0	 8.576769188919569	 12.025800000000002	 0.0
 123	 1	 1	 0.0	 9.802021930193792	 12.733200000000002	 0.0
 124	 1	 1	 0.0	 11.027274671468016	 12.025800000000002	 0.0
 125	 1	 1	 0.0	 12.25252741274224	 12.733200000000002	 0.0
 126	 1	 1	 0.0	 13.477780154016463	 12.025800000000002	 0.0
 127	 1	 1	 0.0	 14.703032895290686	 12.733200000000002	 0.0
 128	 1	 1	 0.0	 15.928285636564912	 12.025800000000002	 0.0
 129	 1	 1	 0.0	 17.153538377839137	 12.733200000000002	 0.0
 130	 1	 1	 0.0	 18.378791119113362	 12.025800000000002	 0.0
 131	 1	 1	 0.0	 19.604043860387584	 12.733200000000002	 0.0
 132	 1	 1	 0.0	 20.82929660166181	 12.025800000000002	 0.0
 133	 1	 1	 -0.115	 22.05454934293603	 12.733200000000002	 0.0
 134	 1	 1	 -0.115	 0.0	 14.148	 0.0
 135	 1	 1	 0.0	 1.225252741274224	 14.8554	 0.0
 136	 1	 1	 0.0	 2.450505482548448	 14.148	 0.0
 137	 1	 1	 0.0	 3.675758223822672	 14.8554	 0.0
 138	 1	 1	 0.0	 4.901010965096896	 14.148	 0.0
 139	 1	 1	 0.0	 6.12626370637112	 14.8554	 0.0
 140	 1	 1	 0.0	 7.351516447645344	 14.148	 0.0
 141	 1	 1	 0.0	 8.576769188919569	 14.8554	 0.0
 142	 1	 1	 0.0	 9.802021930193792	 14.148	 0.0
 143	 1	 1	 0.0	 11.027274671468016	 14.8554	 0.0
 144	 1	 1	 0.0	 12.25252741274224	 14.148	 0.0
 145	 1	 1	 0.0	 13.477780154016463	 14.8554	 0.0
 146	 1	 1	 0.0	 14.703032895290686	 14.148	 0.0
 147	 1	 1	 0.0	 15.928285636564912	 14.8554	 0.0
 148	 1	 1	 0.0	 17.153538377839137	 14.148	 0.0
 149	 1	 1	 0.0	 18.378791119113362	 14.8554	 0.0
 150	 1	 1	 0.0	 19.604043860387584	 14.148	 0.0
 151	 1	 1	 0.0	 20.82929660166181	 14.8554	 0.0
 152	 1	 1	 -0.115	 22.05454934293603	 14.148	 0.0
 153	 1	 1	 -0.115	 0.0	 16.977600000000002	 0.0
 154	 1	 1	 0.0	 1.225252741274224	 16.270200000000003	 0.0
 155	 1	 1	 0.0	 2.450505482548448	 16.977600000000002	 0.0
 156	 1	 1	 0.0	 3.675758223822672	 16.270200000000003	 0.0
 157	 1	 1	 0.0	 4.901010965096896	 16.977600000000002	 0.0
 158	 1	 1	 0.0	 6.12626370637112	 16.270200000000003	 0.0
 159	 1	 1	 0.0	 7.351516447645344	 16.977600000000002	 0.0
 160	 1	 1	 0.0	 8.576769188919569	 16.270200000000003	 0.0
 161	 1	 1	 0.0	 9.802021930193792	 16.977600000000002	 0.0
 162	 1	 1	 0.0	 11.027274671468016	 16.270200000000003	 0.0
 163	 1	 1	 0.0	 12.25252741274224	 16.977600000000002	 0.0
 164	 1	 1	 0.0	 13.477780154016463	 16.270200000000003	 0.0
 165	 1	 1	 0.0	 14.703032895290686	 16.977600000000002	 0.0
 166	 1	 1	 0.0	 15.928285636564912	 16.270200000000003	 0.0
 167	 1	 1	 0.0	 17.153538377839137	 16.977600000000002	 0.0
 168	 1	 1	 0.0	 18.378791119113362	 16.270200000000003	 0.0
 169	 1	 1	 0.0	 19.604043860387584	 16.977600000000002	 0.0
 170	 1	 1	 0.0	 20.82929660166181	 16.270200000000003	 0.0
 171	 1	 1	 -0.115	 22.05454934293603	 16.977600000000002	 0.0
 172	 1	 1	 -0.115	 0.0	 18.392400000000002	 0.0
 173	 1	 1	 -0.115	 1.225252741274224	 19.099800000000002	 0.0
 174	 1	 1	 0.0	 2.450505482548448	 18.392400000000002	 0.0
 175	 1	 1	 -0.115	 3.675758223822672	 19.099800000000002	 0.0
 176	 1	 1	 0.0	 4.901010965096896	 18.392400000000002	 0.0
 177	 1	 1	 -0.115	 6.12626370637112	 19.099800000000002	 0.0
 178	 1	 1	 0.0	 7.351516447645344	 18.392400000000002	 0.0
 179	 1	 1	 -0.115	 8.576769188919569	 19.099800000000002	 0.0
 180	 1	 1	 0.0	 9.802021930193792	 18.392400000000002	 0.0
 181	 1	 1	 -0.115	 11.027274671468016	 19.099800000000002	 0.0
 182	 1	 1	 0.0	 12.25252741274224	 18.392400000000002	 0.0
 183	 1	 1	 -0.115	 13.477780154016463	 19.099800000000002	 0.0
 184	 1	 1	 0.0	 14.703032895290686	 18.392400000000002	 0.0
 185	 1	 11	 0.15	 15.928285636564912	 19.099800000000002	 0.0
 186	 1	 1	 0.0	 17.153538377839137	 18.392400000000002	 0.0
 187	 1	 1	 -0.115	 18.378791119113362	 19.099800000000002	 0.0
 188	 1	 1	 0.0	 19.604043860387584	 18.392400000000002	 0.0
 189	 1	 1	 -0.115	 20.82929660166181	 19.099800000000002	 0.0
 190	 1	 11	 0.15	 22.05454934293603	 18.392400000000002	 0.0
 191	 1	 7	 -0.585	 1.225252741274224	 -2.1074	 0.0
 192	 1	 7	 -0.585	 3.675758223822672	 -2.1074	 0.0
 193	 1	 2	 0.115	 6.12626370637112	 -1.7844	 0.0
 194	 1	 2	 0.115	 8.576769188919569	 -1.7844	 0.0
 195	 1	 2	 0.115	 11.027274671468016	 -1.7844	 0.0
 196	 1	 2	 0.115	 13.477780154016463	 -1.7844	 0.0
 197	 1	 2	 0.115	 15.928285636564912	 -1.7844	 0.0
 198	 1	 7	 -0.585	 18.378791119113362	 -2.1074	 0.0
 199	 1	 2	 0.115	 20.82929660166181	 -1.7844	 0.0
 200	 1	 2	 0.115	 1.225252741274224	 20.1768	 0.0
 201	 1	 2	 0.115	 3.675758223822672	 20.1768	 0.0
 202	 1	 2	 0.115	 6.12626370637112	 20.1768	 0.0
 203	 1	 2	 0.115	 8.576769188919569	 20.1768	 0.0
 204	 1	 2	 0.115	 11.027274671468016	 20.1768	 0.0
 205	 1	 2	 0.115	 13.477780154016463	 20.1768	 0.0
 206	 1	 7	 -0.585	 15.928285636564912	 20.4998	 0.0
 207	 1	 2	 0.115	 18.378791119113362	 20.1768	 0.0
 208	 1	 2	 0.115	 20.82929660166181	 20.1768	 0.0
 209	 1	 7	 -0.585	 -1.2124355652982142	 -0.7	 0.0
 210	 1	 7	 -0.585	 -1.2124355652982142	 2.1148	 0.0
 211	 1	 2	 0.115	 22.98725870281187	 -0.5385	 0.0
 212	 1	 2	 0.115	 22.98725870281187	 1.9533	 0.0
 213	 1	 2	 0.115	 -0.9327093598758405	 3.7059000000000006	 0.0
 214	 1	 7	 -0.585	 -1.2124355652982142	 6.3592	 0.0
 215	 1	 2	 0.115	 22.98725870281187	 3.7059000000000006	 0.0
 216	 1	 7	 -0.585	 23.266984908234246	 6.3592	 0.0
 217	 1	 2	 0.115	 -0.9327093598758405	 7.950300000000001	 0.0
 218	 1	 2	 0.115	 -0.9327093598758405	 10.4421	 0.0
 219	 1	 7	 -0.585	 23.266984908234246	 7.788800000000001	 0.0
 220	 1	 7	 -0.585	 23.266984908234246	 10.6036	 0.0
 221	 1	 2	 0.115	 -0.9327093598758405	 12.194700000000001	 0.0
 222	 1	 2	 0.115	 -0.9327093598758405	 14.686499999999999	 0.0
 223	 1	 2	 0.115	 22.98725870281187	 12.194700000000001	 0.0
 224	 1	 2	 0.115	 22.98725870281187	 14.686499999999999	 0.0
 225	 1	 2	 0.115	 -0.9327093598758405	 16.439100000000003	 0.0
 226	 1	 2	 0.115	 -0.9327093598758405	 18.9309	 0.0
 227	 1	 2	 0.115	 22.98725870281187	 16.439100000000003	 0.0
 228	 1	 7	 -0.585	 23.266984908234246	 19.0924	 0.0
 229	 1	 5	 0.435	 1.225252741274224	 -2.8074000000000003	 0.7
 230	 1	 5	 0.435	 3.675758223822672	 -2.8074000000000003	 0.7
 231	 1	 5	 0.435	 18.378791119113362	 -2.8074000000000003	 0.7
 232	 1	 5	 0.435	 15.928285636564912	 21.1998	 0.7
 233	 1	 5	 0.435	 -1.8186533479473213	 -1.0499999999999998	 -0.7
 234	 1	 5	 0.435	 -1.8186533479473213	 2.4648	 -0.7
 235	 1	 5	 0.435	 -1.8186533479473213	 6.7092	 0.7
 236	 1	 5	 0.435	 23.873202690883353	 6.7092	 -0.7
 237	 1	 5	 0.435	 23.873202690883353	 7.438800000000001	 -0.7
 238	 1	 5	 0.435	 23.873202690883353	 10.9536	 0.7
 239	 1	 5	 0.435	 23.873202690883353	 19.4424	 0.7
 
 Bonds 
 
1	 1	 1	 2
2	 2	 2	 3
3	 2	 3	 4
4	 2	 4	 5
5	 3	 5	 6
6	 3	 6	 7
7	 3	 7	 8
8	 3	 8	 9
9	 3	 9	 10
10	 3	 10	 11
11	 3	 11	 12
12	 3	 12	 13
13	 3	 13	 14
14	 3	 14	 15
15	 2	 15	 16
16	 2	 16	 17
17	 3	 17	 18
18	 3	 18	 19
19	 2	 20	 21
20	 3	 21	 22
21	 3	 22	 23
22	 3	 23	 24
23	 3	 24	 25
24	 3	 25	 26
25	 3	 26	 27
26	 3	 27	 28
27	 3	 28	 29
28	 3	 29	 30
29	 3	 30	 31
30	 3	 31	 32
31	 3	 32	 33
32	 3	 33	 34
33	 3	 34	 35
34	 3	 35	 36
35	 3	 36	 37
36	 3	 37	 38
37	 3	 39	 40
38	 3	 40	 41
39	 3	 41	 42
40	 3	 42	 43
41	 3	 43	 44
42	 3	 44	 45
43	 3	 45	 46
44	 3	 46	 47
45	 3	 47	 48
46	 3	 48	 49
47	 3	 49	 50
48	 3	 50	 51
49	 3	 51	 52
50	 3	 52	 53
51	 3	 53	 54
52	 3	 54	 55
53	 3	 55	 56
54	 3	 56	 57
55	 2	 58	 59
56	 3	 59	 60
57	 3	 60	 61
58	 3	 61	 62
59	 3	 62	 63
60	 3	 63	 64
61	 3	 64	 65
62	 3	 65	 66
63	 3	 66	 67
64	 3	 67	 68
65	 3	 68	 69
66	 3	 69	 70
67	 3	 70	 71
68	 3	 71	 72
69	 3	 72	 73
70	 3	 73	 74
71	 3	 74	 75
72	 2	 75	 76
73	 3	 77	 78
74	 3	 78	 79
75	 3	 79	 80
76	 3	 80	 81
77	 3	 81	 82
78	 3	 82	 83
79	 3	 83	 84
80	 3	 84	 85
81	 3	 85	 86
82	 3	 86	 87
83	 3	 87	 88
84	 3	 88	 89
85	 3	 89	 90
86	 3	 90	 91
87	 3	 91	 92
88	 3	 92	 93
89	 3	 93	 94
90	 2	 94	 95
91	 3	 96	 97
92	 3	 97	 98
93	 3	 98	 99
94	 3	 99	 100
95	 3	 100	 101
96	 3	 101	 102
97	 3	 102	 103
98	 3	 103	 104
99	 3	 104	 105
100	 3	 105	 106
101	 3	 106	 107
102	 3	 107	 108
103	 3	 108	 109
104	 3	 109	 110
105	 3	 110	 111
106	 3	 111	 112
107	 3	 112	 113
108	 2	 113	 114
109	 3	 115	 116
110	 3	 116	 117
111	 3	 117	 118
112	 3	 118	 119
113	 3	 119	 120
114	 3	 120	 121
115	 3	 121	 122
116	 3	 122	 123
117	 3	 123	 124
118	 3	 124	 125
119	 3	 125	 126
120	 3	 126	 127
121	 3	 127	 128
122	 3	 128	 129
123	 3	 129	 130
124	 3	 130	 131
125	 3	 131	 132
126	 3	 132	 133
127	 3	 134	 135
128	 3	 135	 136
129	 3	 136	 137
130	 3	 137	 138
131	 3	 138	 139
132	 3	 139	 140
133	 3	 140	 141
134	 3	 141	 142
135	 3	 142	 143
136	 3	 143	 144
137	 3	 144	 145
138	 3	 145	 146
139	 3	 146	 147
140	 3	 147	 148
141	 3	 148	 149
142	 3	 149	 150
143	 3	 150	 151
144	 3	 151	 152
145	 3	 153	 154
146	 3	 154	 155
147	 3	 155	 156
148	 3	 156	 157
149	 3	 157	 158
150	 3	 158	 159
151	 3	 159	 160
152	 3	 160	 161
153	 3	 161	 162
154	 3	 162	 163
155	 3	 163	 164
156	 3	 164	 165
157	 3	 165	 166
158	 3	 166	 167
159	 3	 167	 168
160	 3	 168	 169
161	 3	 169	 170
162	 3	 170	 171
163	 3	 172	 173
164	 3	 173	 174
165	 3	 174	 175
166	 3	 175	 176
167	 3	 176	 177
168	 3	 177	 178
169	 3	 178	 179
170	 3	 179	 180
171	 3	 180	 181
172	 3	 181	 182
173	 3	 182	 183
174	 3	 183	 184
175	 2	 184	 185
176	 2	 185	 186
177	 3	 186	 187
178	 3	 187	 188
179	 3	 188	 189
180	 2	 189	 190
181	 1	 1	 20
182	 3	 3	 22
183	 3	 5	 24
184	 3	 7	 26
185	 3	 9	 28
186	 3	 11	 30
187	 3	 13	 32
188	 3	 15	 34
189	 3	 17	 36
190	 3	 19	 38
191	 3	 21	 40
192	 3	 23	 42
193	 3	 25	 44
194	 3	 27	 46
195	 3	 29	 48
196	 3	 31	 50
197	 3	 33	 52
198	 3	 35	 54
199	 3	 37	 56
200	 2	 39	 58
201	 3	 41	 60
202	 3	 43	 62
203	 3	 45	 64
204	 3	 47	 66
205	 3	 49	 68
206	 3	 51	 70
207	 3	 53	 72
208	 3	 55	 74
209	 2	 57	 76
210	 3	 59	 78
211	 3	 61	 80
212	 3	 63	 82
213	 3	 65	 84
214	 3	 67	 86
215	 3	 69	 88
216	 3	 71	 90
217	 3	 73	 92
218	 3	 75	 94
219	 3	 77	 96
220	 3	 79	 98
221	 3	 81	 100
222	 3	 83	 102
223	 3	 85	 104
224	 3	 87	 106
225	 3	 89	 108
226	 3	 91	 110
227	 3	 93	 112
228	 1	 95	 114
229	 3	 97	 116
230	 3	 99	 118
231	 3	 101	 120
232	 3	 103	 122
233	 3	 105	 124
234	 3	 107	 126
235	 3	 109	 128
236	 3	 111	 130
237	 3	 113	 132
238	 3	 115	 134
239	 3	 117	 136
240	 3	 119	 138
241	 3	 121	 140
242	 3	 123	 142
243	 3	 125	 144
244	 3	 127	 146
245	 3	 129	 148
246	 3	 131	 150
247	 3	 133	 152
248	 3	 135	 154
249	 3	 137	 156
250	 3	 139	 158
251	 3	 141	 160
252	 3	 143	 162
253	 3	 145	 164
254	 3	 147	 166
255	 3	 149	 168
256	 3	 151	 170
257	 3	 153	 172
258	 3	 155	 174
259	 3	 157	 176
260	 3	 159	 178
261	 3	 161	 180
262	 3	 163	 182
263	 3	 165	 184
264	 3	 167	 186
265	 3	 169	 188
266	 2	 171	 190
267	 4	 2	 191
268	 4	 4	 192
269	 5	 6	 193
270	 5	 8	 194
271	 5	 10	 195
272	 5	 12	 196
273	 5	 14	 197
274	 4	 16	 198
275	 5	 18	 199
276	 5	 173	 200
277	 5	 175	 201
278	 5	 177	 202
279	 5	 179	 203
280	 5	 181	 204
281	 5	 183	 205
282	 4	 185	 206
283	 5	 187	 207
284	 5	 189	 208
285	 4	 1	 209
286	 4	 20	 210
287	 5	 19	 211
288	 5	 38	 212
289	 5	 39	 213
290	 4	 58	 214
291	 5	 57	 215
292	 4	 76	 216
293	 5	 77	 217
294	 5	 96	 218
295	 4	 95	 219
296	 4	 114	 220
297	 5	 115	 221
298	 5	 134	 222
299	 5	 133	 223
300	 5	 152	 224
301	 5	 153	 225
302	 5	 172	 226
303	 5	 171	 227
304	 4	 190	 228
305	 6	 191	 229
306	 6	 192	 230
307	 6	 198	 231
308	 6	 206	 232
309	 6	 209	 233
310	 6	 210	 234
311	 6	 214	 235
312	 6	 216	 236
313	 6	 219	 237
314	 6	 220	 238
315	 6	 228	 239

 Angles 
 
1	 1	 209	 1	 2
2	 1	 209	 1	 20
3	 2	 2	 1	 20
4	 3	 1	 2	 3
5	 1	 1	 2	 191
6	 4	 3	 2	 191
7	 5	 2	 3	 4
8	 6	 2	 3	 22
9	 6	 4	 3	 22
10	 7	 3	 4	 5
11	 4	 3	 4	 192
12	 4	 5	 4	 192
13	 6	 4	 5	 6
14	 6	 4	 5	 24
15	 8	 6	 5	 24
16	 9	 193	 6	 5
17	 9	 193	 6	 7
18	 8	 5	 6	 7
19	 8	 26	 7	 6
20	 8	 26	 7	 8
21	 8	 6	 7	 8
22	 9	 9	 8	 194
23	 8	 9	 8	 7
24	 9	 194	 8	 7
25	 8	 10	 9	 28
26	 8	 10	 9	 8
27	 8	 28	 9	 8
28	 8	 9	 10	 11
29	 9	 9	 10	 195
30	 9	 11	 10	 195
31	 8	 10	 11	 12
32	 8	 10	 11	 30
33	 8	 12	 11	 30
34	 9	 11	 12	 196
35	 8	 11	 12	 13
36	 9	 196	 12	 13
37	 8	 12	 13	 14
38	 8	 12	 13	 32
39	 8	 14	 13	 32
40	 9	 197	 14	 13
41	 9	 197	 14	 15
42	 8	 13	 14	 15
43	 8	 34	 15	 14
44	 6	 34	 15	 16
45	 6	 14	 15	 16
46	 4	 17	 16	 198
47	 7	 17	 16	 15
48	 4	 198	 16	 15
49	 8	 18	 17	 36
50	 6	 18	 17	 16
51	 6	 36	 17	 16
52	 8	 17	 18	 19
53	 9	 17	 18	 199
54	 9	 19	 18	 199
55	 9	 18	 19	 211
56	 8	 18	 19	 38
57	 9	 211	 19	 38
58	 1	 1	 20	 210
59	 3	 1	 20	 21
60	 4	 210	 20	 21
61	 6	 20	 21	 22
62	 6	 20	 21	 40
63	 8	 22	 21	 40
64	 8	 3	 22	 21
65	 8	 3	 22	 23
66	 8	 21	 22	 23
67	 8	 42	 23	 22
68	 8	 42	 23	 24
69	 8	 22	 23	 24
70	 8	 25	 24	 5
71	 8	 25	 24	 23
72	 8	 5	 24	 23
73	 8	 26	 25	 44
74	 8	 26	 25	 24
75	 8	 44	 25	 24
76	 8	 25	 26	 27
77	 8	 25	 26	 7
78	 8	 27	 26	 7
79	 8	 26	 27	 28
80	 8	 26	 27	 46
81	 8	 28	 27	 46
82	 8	 9	 28	 27
83	 8	 9	 28	 29
84	 8	 27	 28	 29
85	 8	 28	 29	 30
86	 8	 28	 29	 48
87	 8	 30	 29	 48
88	 8	 11	 30	 29
89	 8	 11	 30	 31
90	 8	 29	 30	 31
91	 8	 50	 31	 30
92	 8	 50	 31	 32
93	 8	 30	 31	 32
94	 8	 33	 32	 13
95	 8	 33	 32	 31
96	 8	 13	 32	 31
97	 8	 34	 33	 52
98	 8	 34	 33	 32
99	 8	 52	 33	 32
100	 8	 33	 34	 35
101	 8	 33	 34	 15
102	 8	 35	 34	 15
103	 8	 34	 35	 36
104	 8	 34	 35	 54
105	 8	 36	 35	 54
106	 8	 17	 36	 35
107	 8	 17	 36	 37
108	 8	 35	 36	 37
109	 8	 36	 37	 38
110	 8	 36	 37	 56
111	 8	 38	 37	 56
112	 9	 19	 38	 212
113	 8	 19	 38	 37
114	 9	 212	 38	 37
115	 10	 58	 39	 213
116	 6	 58	 39	 40
117	 9	 213	 39	 40
118	 8	 41	 40	 21
119	 8	 41	 40	 39
120	 8	 21	 40	 39
121	 8	 42	 41	 60
122	 8	 42	 41	 40
123	 8	 60	 41	 40
124	 8	 41	 42	 43
125	 8	 41	 42	 23
126	 8	 43	 42	 23
127	 8	 42	 43	 44
128	 8	 42	 43	 62
129	 8	 44	 43	 62
130	 8	 25	 44	 43
131	 8	 25	 44	 45
132	 8	 43	 44	 45
133	 8	 44	 45	 46
134	 8	 44	 45	 64
135	 8	 46	 45	 64
136	 8	 27	 46	 45
137	 8	 27	 46	 47
138	 8	 45	 46	 47
139	 8	 66	 47	 46
140	 8	 66	 47	 48
141	 8	 46	 47	 48
142	 8	 49	 48	 29
143	 8	 49	 48	 47
144	 8	 29	 48	 47
145	 8	 50	 49	 68
146	 8	 50	 49	 48
147	 8	 68	 49	 48
148	 8	 49	 50	 51
149	 8	 49	 50	 31
150	 8	 51	 50	 31
151	 8	 50	 51	 52
152	 8	 50	 51	 70
153	 8	 52	 51	 70
154	 8	 33	 52	 51
155	 8	 33	 52	 53
156	 8	 51	 52	 53
157	 8	 52	 53	 54
158	 8	 52	 53	 72
159	 8	 54	 53	 72
160	 8	 35	 54	 53
161	 8	 35	 54	 55
162	 8	 53	 54	 55
163	 8	 74	 55	 54
164	 8	 74	 55	 56
165	 8	 54	 55	 56
166	 8	 57	 56	 37
167	 8	 57	 56	 55
168	 8	 37	 56	 55
169	 10	 76	 57	 215
170	 6	 76	 57	 56
171	 9	 215	 57	 56
172	 4	 59	 58	 214
173	 7	 59	 58	 39
174	 4	 214	 58	 39
175	 6	 58	 59	 60
176	 6	 58	 59	 78
177	 8	 60	 59	 78
178	 8	 41	 60	 59
179	 8	 41	 60	 61
180	 8	 59	 60	 61
181	 8	 60	 61	 62
182	 8	 60	 61	 80
183	 8	 62	 61	 80
184	 8	 43	 62	 61
185	 8	 43	 62	 63
186	 8	 61	 62	 63
187	 8	 82	 63	 62
188	 8	 82	 63	 64
189	 8	 62	 63	 64
190	 8	 65	 64	 45
191	 8	 65	 64	 63
192	 8	 45	 64	 63
193	 8	 66	 65	 84
194	 8	 66	 65	 64
195	 8	 84	 65	 64
196	 8	 65	 66	 67
197	 8	 65	 66	 47
198	 8	 67	 66	 47
199	 8	 66	 67	 68
200	 8	 66	 67	 86
201	 8	 68	 67	 86
202	 8	 49	 68	 67
203	 8	 49	 68	 69
204	 8	 67	 68	 69
205	 8	 68	 69	 70
206	 8	 68	 69	 88
207	 8	 70	 69	 88
208	 8	 51	 70	 69
209	 8	 51	 70	 71
210	 8	 69	 70	 71
211	 8	 90	 71	 70
212	 8	 90	 71	 72
213	 8	 70	 71	 72
214	 8	 73	 72	 53
215	 8	 73	 72	 71
216	 8	 53	 72	 71
217	 8	 74	 73	 92
218	 8	 74	 73	 72
219	 8	 92	 73	 72
220	 8	 73	 74	 75
221	 8	 73	 74	 55
222	 8	 75	 74	 55
223	 6	 74	 75	 76
224	 8	 74	 75	 94
225	 6	 76	 75	 94
226	 7	 57	 76	 75
227	 4	 57	 76	 216
228	 4	 75	 76	 216
229	 9	 217	 77	 78
230	 9	 217	 77	 96
231	 8	 78	 77	 96
232	 8	 59	 78	 77
233	 8	 59	 78	 79
234	 8	 77	 78	 79
235	 8	 98	 79	 78
236	 8	 98	 79	 80
237	 8	 78	 79	 80
238	 8	 81	 80	 61
239	 8	 81	 80	 79
240	 8	 61	 80	 79
241	 8	 82	 81	 100
242	 8	 82	 81	 80
243	 8	 100	 81	 80
244	 8	 81	 82	 83
245	 8	 81	 82	 63
246	 8	 83	 82	 63
247	 8	 82	 83	 84
248	 8	 82	 83	 102
249	 8	 84	 83	 102
250	 8	 65	 84	 83
251	 8	 65	 84	 85
252	 8	 83	 84	 85
253	 8	 84	 85	 86
254	 8	 84	 85	 104
255	 8	 86	 85	 104
256	 8	 67	 86	 85
257	 8	 67	 86	 87
258	 8	 85	 86	 87
259	 8	 106	 87	 86
260	 8	 106	 87	 88
261	 8	 86	 87	 88
262	 8	 89	 88	 69
263	 8	 89	 88	 87
264	 8	 69	 88	 87
265	 8	 90	 89	 108
266	 8	 90	 89	 88
267	 8	 108	 89	 88
268	 8	 89	 90	 91
269	 8	 89	 90	 71
270	 8	 91	 90	 71
271	 8	 90	 91	 92
272	 8	 90	 91	 110
273	 8	 92	 91	 110
274	 8	 73	 92	 91
275	 8	 73	 92	 93
276	 8	 91	 92	 93
277	 8	 92	 93	 94
278	 8	 92	 93	 112
279	 8	 94	 93	 112
280	 8	 75	 94	 93
281	 6	 75	 94	 95
282	 6	 93	 94	 95
283	 1	 114	 95	 219
284	 3	 114	 95	 94
285	 4	 219	 95	 94
286	 9	 97	 96	 218
287	 8	 97	 96	 77
288	 9	 218	 96	 77
289	 8	 98	 97	 116
290	 8	 98	 97	 96
291	 8	 116	 97	 96
292	 8	 97	 98	 99
293	 8	 97	 98	 79
294	 8	 99	 98	 79
295	 8	 98	 99	 100
296	 8	 98	 99	 118
297	 8	 100	 99	 118
298	 8	 81	 100	 99
299	 8	 81	 100	 101
300	 8	 99	 100	 101
301	 8	 100	 101	 102
302	 8	 100	 101	 120
303	 8	 102	 101	 120
304	 8	 83	 102	 101
305	 8	 83	 102	 103
306	 8	 101	 102	 103
307	 8	 122	 103	 102
308	 8	 122	 103	 104
309	 8	 102	 103	 104
310	 8	 105	 104	 85
311	 8	 105	 104	 103
312	 8	 85	 104	 103
313	 8	 106	 105	 124
314	 8	 106	 105	 104
315	 8	 124	 105	 104
316	 8	 105	 106	 107
317	 8	 105	 106	 87
318	 8	 107	 106	 87
319	 8	 106	 107	 108
320	 8	 106	 107	 126
321	 8	 108	 107	 126
322	 8	 89	 108	 107
323	 8	 89	 108	 109
324	 8	 107	 108	 109
325	 8	 108	 109	 110
326	 8	 108	 109	 128
327	 8	 110	 109	 128
328	 8	 91	 110	 109
329	 8	 91	 110	 111
330	 8	 109	 110	 111
331	 8	 130	 111	 110
332	 8	 130	 111	 112
333	 8	 110	 111	 112
334	 8	 113	 112	 93
335	 8	 113	 112	 111
336	 8	 93	 112	 111
337	 6	 114	 113	 132
338	 6	 114	 113	 112
339	 8	 132	 113	 112
340	 4	 113	 114	 220
341	 3	 113	 114	 95
342	 1	 220	 114	 95
343	 9	 116	 115	 221
344	 8	 116	 115	 134
345	 9	 221	 115	 134
346	 8	 97	 116	 115
347	 8	 97	 116	 117
348	 8	 115	 116	 117
349	 8	 116	 117	 118
350	 8	 116	 117	 136
351	 8	 118	 117	 136
352	 8	 99	 118	 117
353	 8	 99	 118	 119
354	 8	 117	 118	 119
355	 8	 138	 119	 118
356	 8	 138	 119	 120
357	 8	 118	 119	 120
358	 8	 121	 120	 101
359	 8	 121	 120	 119
360	 8	 101	 120	 119
361	 8	 122	 121	 140
362	 8	 122	 121	 120
363	 8	 140	 121	 120
364	 8	 121	 122	 123
365	 8	 121	 122	 103
366	 8	 123	 122	 103
367	 8	 122	 123	 124
368	 8	 122	 123	 142
369	 8	 124	 123	 142
370	 8	 105	 124	 123
371	 8	 105	 124	 125
372	 8	 123	 124	 125
373	 8	 124	 125	 126
374	 8	 124	 125	 144
375	 8	 126	 125	 144
376	 8	 107	 126	 125
377	 8	 107	 126	 127
378	 8	 125	 126	 127
379	 8	 146	 127	 126
380	 8	 146	 127	 128
381	 8	 126	 127	 128
382	 8	 129	 128	 109
383	 8	 129	 128	 127
384	 8	 109	 128	 127
385	 8	 130	 129	 148
386	 8	 130	 129	 128
387	 8	 148	 129	 128
388	 8	 129	 130	 131
389	 8	 129	 130	 111
390	 8	 131	 130	 111
391	 8	 130	 131	 132
392	 8	 130	 131	 150
393	 8	 132	 131	 150
394	 8	 113	 132	 131
395	 8	 113	 132	 133
396	 8	 131	 132	 133
397	 9	 132	 133	 223
398	 8	 132	 133	 152
399	 9	 223	 133	 152
400	 9	 115	 134	 222
401	 8	 115	 134	 135
402	 9	 222	 134	 135
403	 8	 154	 135	 134
404	 8	 154	 135	 136
405	 8	 134	 135	 136
406	 8	 137	 136	 117
407	 8	 137	 136	 135
408	 8	 117	 136	 135
409	 8	 138	 137	 156
410	 8	 138	 137	 136
411	 8	 156	 137	 136
412	 8	 137	 138	 139
413	 8	 137	 138	 119
414	 8	 139	 138	 119
415	 8	 138	 139	 140
416	 8	 138	 139	 158
417	 8	 140	 139	 158
418	 8	 121	 140	 139
419	 8	 121	 140	 141
420	 8	 139	 140	 141
421	 8	 140	 141	 142
422	 8	 140	 141	 160
423	 8	 142	 141	 160
424	 8	 123	 142	 141
425	 8	 123	 142	 143
426	 8	 141	 142	 143
427	 8	 162	 143	 142
428	 8	 162	 143	 144
429	 8	 142	 143	 144
430	 8	 145	 144	 125
431	 8	 145	 144	 143
432	 8	 125	 144	 143
433	 8	 146	 145	 164
434	 8	 146	 145	 144
435	 8	 164	 145	 144
436	 8	 145	 146	 147
437	 8	 145	 146	 127
438	 8	 147	 146	 127
439	 8	 146	 147	 148
440	 8	 146	 147	 166
441	 8	 148	 147	 166
442	 8	 129	 148	 147
443	 8	 129	 148	 149
444	 8	 147	 148	 149
445	 8	 148	 149	 150
446	 8	 148	 149	 168
447	 8	 150	 149	 168
448	 8	 131	 150	 149
449	 8	 131	 150	 151
450	 8	 149	 150	 151
451	 8	 170	 151	 150
452	 8	 170	 151	 152
453	 8	 150	 151	 152
454	 8	 133	 152	 151
455	 9	 133	 152	 224
456	 9	 151	 152	 224
457	 9	 225	 153	 154
458	 9	 225	 153	 172
459	 8	 154	 153	 172
460	 8	 153	 154	 155
461	 8	 153	 154	 135
462	 8	 155	 154	 135
463	 8	 154	 155	 156
464	 8	 154	 155	 174
465	 8	 156	 155	 174
466	 8	 137	 156	 155
467	 8	 137	 156	 157
468	 8	 155	 156	 157
469	 8	 156	 157	 158
470	 8	 156	 157	 176
471	 8	 158	 157	 176
472	 8	 139	 158	 157
473	 8	 139	 158	 159
474	 8	 157	 158	 159
475	 8	 178	 159	 158
476	 8	 178	 159	 160
477	 8	 158	 159	 160
478	 8	 161	 160	 141
479	 8	 161	 160	 159
480	 8	 141	 160	 159
481	 8	 162	 161	 180
482	 8	 162	 161	 160
483	 8	 180	 161	 160
484	 8	 161	 162	 163
485	 8	 161	 162	 143
486	 8	 163	 162	 143
487	 8	 162	 163	 164
488	 8	 162	 163	 182
489	 8	 164	 163	 182
490	 8	 145	 164	 163
491	 8	 145	 164	 165
492	 8	 163	 164	 165
493	 8	 164	 165	 166
494	 8	 164	 165	 184
495	 8	 166	 165	 184
496	 8	 147	 166	 165
497	 8	 147	 166	 167
498	 8	 165	 166	 167
499	 8	 186	 167	 166
500	 8	 186	 167	 168
501	 8	 166	 167	 168
502	 8	 169	 168	 149
503	 8	 169	 168	 167
504	 8	 149	 168	 167
505	 8	 170	 169	 188
506	 8	 170	 169	 168
507	 8	 188	 169	 168
508	 8	 169	 170	 171
509	 8	 169	 170	 151
510	 8	 171	 170	 151
511	 9	 170	 171	 227
512	 6	 170	 171	 190
513	 10	 227	 171	 190
514	 9	 153	 172	 226
515	 8	 153	 172	 173
516	 9	 226	 172	 173
517	 8	 172	 173	 174
518	 9	 172	 173	 200
519	 9	 174	 173	 200
520	 8	 155	 174	 173
521	 8	 155	 174	 175
522	 8	 173	 174	 175
523	 9	 201	 175	 174
524	 9	 201	 175	 176
525	 8	 174	 175	 176
526	 8	 177	 176	 157
527	 8	 177	 176	 175
528	 8	 157	 176	 175
529	 9	 178	 177	 202
530	 8	 178	 177	 176
531	 9	 202	 177	 176
532	 8	 177	 178	 179
533	 8	 177	 178	 159
534	 8	 179	 178	 159